! Sonnet Data File
! From: sonnet Version : 18.53-Lite
! From Emgraph Data: 
! Data File Written: 06/26/2025 06:00:17
!< HDATE 06/26/2025 05:57:32
!< MDATE 06/26/2025 05:57:32
!< PARAMS
!< Lfeed = 10.0
!< W0 = 1.08
!< Ltrans = 1.27
!< Lcoupled = 22.75
!< Wcoupled = 1.0
!< W0_1 = 1.080008
!< W0_2 = 1.08
!< END PARAMS
# GHZ S MA R 50.00000
0.100000000000000 0.0142644138260 78.334969630623 0.9988648071103 -9.257175883635 0.0134867392523 80.564968565487 0.0034361522195 -102.0205947877
                  0.9988648071102 -9.257175883630 0.0142648915250 78.259786634541 0.0034360071639 -102.1111445679 0.0134867557716 80.561884997080
                  0.0134867392523 80.564968565557 0.0034360071639 -102.1111445684 0.0141484844832 78.202600471104 0.9988672633726 -9.258563479910
                  0.0034361522195 -102.0205947882 0.0134867557717 80.561884997242 0.9988672633727 -9.258563479914 0.0141474535066 78.358544051745
0.120000000000000 0.0169922178236 76.712790977549 0.9986721864161 -11.10347541017 0.0161773104970 78.674919354201 0.0041171739400 -104.4402769541
                  0.9986721864161 -11.10347541017 0.0169931444532 76.621543076236 0.0041154743662 -104.4587794468 0.0161729372360 78.696561380870
                  0.0161773104970 78.674919354201 0.0041154743662 -104.4587794468 0.0168547472430 76.558093810606 0.9986753818663 -11.10519137873
                  0.0041171739400 -104.4402769541 0.0161729372360 78.696561380870 0.9986753818663 -11.10519137873 0.0168532663719 76.744699705902
0.140000000000000 0.0196968372735 75.033136300752 0.9984693141992 -12.94924349040 0.0188563874829 76.785556192840 0.0047943180178 -106.9182195618
                  0.9984693141992 -12.94924349040 0.0196978197837 74.926310963006 0.0047933590014 -106.9801478290 0.0188536199899 76.800266676811
                  0.0188563874829 76.785556192840 0.0047933590014 -106.9801478290 0.0195364717766 74.854655181306 0.9984733307408 -12.95124471902
                  0.0047943180178 -106.9182195618 0.0188536199899 76.800266676811 0.9984733307408 -12.95124471902 0.0195346915007 75.074202654063
0.160000000000000 0.0223743506356 73.315334244446 0.9982561443934 -14.79446124703 0.0215251437073 74.900812108535 0.0054658987680 -109.4084920534
                  0.9982561443934 -14.79446124703 0.0223751455093 73.193190142362 0.0054654011565 -109.5536812439 0.0215252515803 74.895877950905
                  0.0215251437073 74.900812108551 0.0054654011565 -109.5536812440 0.0221903241230 73.112987953672 0.9982612132525 -14.79672594548
                  0.0054658987680 -109.4084920534 0.0215252515803 74.895877950911 0.9982612132525 -14.79672594548 0.0221884177739 73.366325498414
0.180000000000000 0.0250210330543 71.571103013521 0.9980327922745 -16.63911158634 0.0241847231587 73.020810037665 0.0061312534116 -111.8881540729
                  0.9980327922745 -16.63911158634 0.0250215393910 71.433703774789 0.0061298461684 -112.1159124233 0.0241864087086 72.995156529210
                  0.0241847231587 73.020810037665 0.0061298461684 -112.1159124233 0.0248131452679 71.345130803808 0.9980391764825 -16.64163608812
                  0.0061312534116 -111.8881540729 0.0241864087086 72.995156529210 0.9980391764825 -16.64163608812 0.0248112377789 71.632436983703
0.200000000000000 0.0276333957605 69.808089843339 0.9977994739550 -18.48318016843 0.0268359582798 71.143969883628 0.0067903906996 -114.3480758347
                  0.9977994739550 -18.48318016843 0.0276336379299 69.655310820422 0.0067867331634 -114.6380187029 0.0268371296299 71.103012261625
                  0.0268359582798 71.143969883628 0.0067867331634 -114.6380187029 0.0274019384529 69.558560007986 0.9978073824832 -18.48597465506
                  0.0067903906996 -114.3480758347 0.0268371296299 71.103012261625 0.9978073824832 -18.48597465506 0.0274000631777 69.879755987285
0.220000000000000 0.0302081986108 68.031522541121 0.9975564608757 -20.32665523040 0.0294791425958 69.268203097146 0.0074436211384 -116.7873425436
                  0.9975564608757 -20.32665523040 0.0302082964676 67.863058278832 0.0074371333908 -117.1124017933 0.0294781897496 69.220151034761
                  0.0294791425958 69.268203097146 0.0074371333908 -117.1124017933 0.0299538400322 67.758127911213 0.9975659953501 -20.32973895279
                  0.0074436211384 -116.7873425436 0.0294781897496 69.220151034761 0.9975659953501 -20.32973895279 0.0299519231710 68.113108892188
0.240000000000000 0.0327424414359 66.245067970140 0.9973040503521 -22.16952683478 0.0321139192934 67.391641851810 0.0080912447153 -119.2093997318
                  0.9973040503521 -22.16952683478 0.0327425702590 66.060451432067 0.0080824490692 -119.5438827741 0.0321104633356 67.344939725408
                  0.0321139192934 67.391641851810 0.0080824490692 -119.5438827741 0.0324660851264 65.947085755471 0.9973151826533 -22.17292337417
                  0.0080912447153 -119.2093997318 0.0321104633356 67.344939725408 0.9973151826533 -22.17292337417 0.0324639533635 66.335845118646
0.260000000000000 0.0352333402463 64.451322465623 0.9970425499818 -24.01178596227 0.0347393031448 65.513040162900 0.0087333398068 -121.6193567930
                  0.9970425499818 -24.01178596227 0.0352336854055 64.249958029822 0.0087238625538 -121.9434874500 0.0347344606910 65.474750052050
                  0.0347393031448 65.513040162900 0.0087238625538 -121.9434874500 0.0349359770350 64.127671321651 0.9970551265686 -24.01551900054
                  0.0087333398068 -121.6193567930 0.0347344606910 65.474750052050 0.9970551265686 -24.01551900054 0.0349333815332 64.550356728901
0.280000000000000 0.0376782936857 62.652117034695 0.9967722723711 -25.85342370231 0.0373538135526 63.631917685520 0.0093696631008 -124.0222217541
                  0.9967722723711 -25.85342370231 0.0376790063062 62.433324178953 0.0093619841292 -124.3240645878 0.0373500727801 63.606877656924
                  0.0373538135526 63.631917685520 0.0093619841292 -124.3240645878 0.0373608653178 62.301467097679 0.9967860392283 -25.85751365549
                  0.0093696631008 -124.0222217541 0.0373500727801 63.606877656924 0.9967860392283 -25.85751365549 0.0373575144750 62.758393295715
0.300000000000000 0.0400748444994 60.848722656831 0.9964935365752 -27.69443066348 0.0399556730664 61.748514705650 0.0099996445159 -126.4219037497
                  0.9964935365751 -27.69443066348 0.0400760041446 60.611784744638 0.0099967015812 -126.6974078533 0.0399565079534 61.739099846866
                  0.0399556730664 61.748514705653 0.0099967015812 -126.6974078533 0.0397381338629 60.469626202141 0.9965081775650 -27.69889238929
                  0.0099996445159 -126.4219037498 0.0399565079534 61.739099846872 0.9965081775650 -27.69889238928 0.0397337279021 60.961261857803
0.320000000000000 0.0424206402598 59.041997938619 0.9962066732429 -29.53479663684 0.0425430209339 59.863630941783 0.0106224474104 -128.8208069564
                  0.9962066732429 -29.53479663684 0.0424222292064 58.786209913802 0.0106271988367 -129.0726386764 0.0425523754013 59.869940509769
                  0.0425430209339 59.863630941783 0.0106271988367 -129.0726386764 0.0420651978019 58.633016828517 0.9962218544421 -29.53963827823
                  0.0106224474104 -128.8208069564 0.0425523754013 59.869940509769 0.9962218544421 -29.53963827823 0.0420594598035 59.159957960461
0.340000000000000 0.0447133969585 57.232500815252 0.9959120312388 -31.37451049273 0.0451141006307 57.978415083440 0.0112370620503 -131.2198307594
                  0.9959120312388 -31.37451049273 0.0447152884780 56.957210404933 0.0112520911227 -131.4555829704 0.0451358581771 57.998718601615
                  0.0451141006307 57.978415083440 0.0112520911227 -131.4555829704 0.0443395067662 56.792314420821 0.9959274445553 -31.37973338160
                  0.0112370620503 -131.2198307594 0.0451358581771 57.998718601615 0.9959274445553 -31.37973338160 0.0443322066670 57.355253410146
0.360000000000000 0.0469508683368 55.420575699870 0.9956099842707 -33.21356027282 0.0476673966107 56.094156771630 0.0118424056339 -133.6186066314
                  0.9956099842707 -33.21356027282 0.0469528291376 55.125214349638 0.0118696204449 -133.8488495720 0.0477049213597 56.125455981617
                  0.0476673966107 56.094156771630 0.0118696204449 -133.8488495720 0.0465585518449 54.948059861533 0.9956253849580 -33.21915971626
                  0.0118424056339 -133.6186066314 0.0477049213597 56.125455981617 0.9956253849580 -33.21915971626 0.0465495217946 55.547755986162
0.380000000000000 0.0491308227569 53.606422134359 0.9953009366085 -35.05193342786 0.0502017120952 54.212113503659 0.0124374108451 -136.0158374242
                  0.9953009366085 -35.05193342786 0.0491325277975 53.290523869696 0.0124778633485 -136.2523308141 0.0502575125371 54.250710731572
                  0.0502017120952 54.212113503659 0.0124778633485 -136.2523308141 0.0487198737390 53.100695745300 0.9953161710904 -35.05790013095
                  0.0124374108451 -136.0158374242 0.0502575125371 54.250710731572 0.9953161710904 -35.05790013095 0.0487090147779 53.737950828719
0.400000000000000 0.0512510284149 51.790148424825 0.9949853274040 -36.88961715837 0.0527161924244 52.333387010140 0.0130210935437 -138.4096471311
                  0.9949853274040 -36.88961715837 0.0512520850409 51.453356648324 0.0130749169594 -138.6638937624 0.0527917267725 52.375386952633
                  0.0527161924244 52.333387010140 0.0130749169594 -138.6638937624 0.0508210704549 51.250588925547 0.9950003496432 -36.89593901645
                  0.0130210935437 -138.4096471311 0.0527917267725 52.375386952633 0.9950003496432 -36.89593901645 0.0508083516023 51.926229750800
0.420000000000000 0.0533092466881 49.971812549052 0.9946636333856 -38.72659881878 0.0552103058470 50.458850176803 0.0135925969627 -140.7978878996
                  0.9946636333856 -38.72659881878 0.0533092245108 49.613876169159 0.0136590441175 -141.0800959907 0.0553059225440 50.500555534392
                  0.0552103058470 50.458850176803 0.0136590441175 -141.0800959907 0.0528598035568 49.398044831921 0.9946785096987 -38.73326282542
                  0.0135925969627 -140.7978878996 0.0553059225440 50.500555534392 0.9946785096987 -38.73326282542 0.0528452550551 50.112912601481
0.440000000000000 0.0553032326688 48.151452194338 0.9943363698796 -40.56286635238 0.0576837961196 48.589117397523 0.0141512141468 -143.1783807072
                  0.9943363698796 -40.56286635238 0.0553016957138 47.772213297999 0.0142287708239 -143.4968242127 0.0577987865347 48.627305558390
                  0.0576837961196 48.589117397523 0.0142287708239 -143.4968242127 0.0548338026781 47.543317131597 0.9943512733990 -40.56986041041
                  0.0141512141468 -143.1783807072 0.0577987865347 48.627305558390 0.9943512733990 -40.56986041041 0.0548175053728 48.298263340112
0.460000000000000 0.0572307414816 46.329105663450 0.9940040902326 -42.39840873036 0.0601366203841 46.724547661615 0.0146963925972 -145.5490855562
                  0.9940040902326 -42.39840873036 0.0572272796730 45.928481221877 0.0147829379646 -145.9098064936 0.0602693528037 46.756634410916
                  0.0601366203841 46.724547661615 0.0147829379646 -145.9098064936 0.0567408684600 45.686614919004 0.9940192870533 -42.40572320934
                  0.0146963925972 -145.5490855562 0.0602693528037 46.756634410916 0.9940192870533 -42.40572320934 0.0567229412100 46.482502498044
0.480000000000000 0.0590895388098 44.504825343158 0.9936673837854 -44.23321637371 0.0625688830791 44.865269329494 0.0152277258139 -147.9082078907
                  0.9936673837854 -44.23321637371 0.0590837966007 44.082785302122 0.0153207143837 -148.3149853932 0.0627169860166 44.889376700887
                  0.0625688830791 44.865269329494 0.0153207143837 -148.3149853932 0.0585788743488 43.828108649958 0.9936832132267 -44.24084531684
                  0.0152277258139 -147.9082078907 0.0627169860166 44.889376700887 0.9936832132267 -44.24084531684 0.0585594610593 44.665817052712
0.500000000000000 0.0608774141240 42.678685348065 0.9933268725982 -46.06728154211 0.0649807733978 43.011217036461 0.0157449362301 -150.2542527007
                  0.9933268725982 -46.06728154211 0.0608691148358 42.235229064561 0.0158415805898 -150.7087614997 0.0651413397839 43.026167321501
                  0.0649807733978 43.011217036461 0.0158415805898 -150.7087614997 0.0603457677608 41.967935400309 0.9933437240265 -46.07522347987
                  0.0157449362301 -150.2542527007 0.0651413397839 43.026167321501 0.9933437240265 -46.07522347987 0.0603250252289 42.848368327713
0.520000000000000 0.0625921953146 40.850784797951 0.9929832071489 -47.90059867876 0.0673725108189 41.162173386699 0.0162478533895 -152.5860387954
                  0.9929832071489 -47.90059867876 0.0625811603853 40.385917296287 0.0163452925791 -153.0881277939 0.0675423006194 41.167431739564
                  0.0673725108189 41.162173386699 0.0163452925791 -153.0881277939 0.0620395710764 40.106203648712 0.9930014955605 -47.90885705003
                  0.0162478533895 -152.5860387954 0.0675423006194 41.167431739564 0.9930014955605 -47.90885705003 0.0620176584182 41.030298291466
0.540000000000000 0.0642317637062 39.021247970976 0.9926370612237 -49.73316470434 0.0697443008770 39.317810352977 0.0167363904225 -154.9026847912
                  0.9926370612237 -49.73316470434 0.0642179265222 38.534957018065 0.0168318342754 -155.4507188610 0.0699199263974 39.313396073948
                  0.0697443008770 39.317810352977 0.0168318342754 -155.4507188610 0.0636583828056 38.242997586736 0.9926572033946 -49.74174791627
                  0.0167363904225 -154.9026847912 0.0699199263974 39.313396073948 0.9926572033946 -49.74174791627 0.0636354528529 39.211734499438
0.560000000000000 0.0657940687109 37.190222328410 0.9922891262052 -51.56497925656 0.0720963016732 37.477727219770 0.0172105210815 -157.2035765879
                  0.9922891262052 -51.56497925656 0.0657774829950 36.682456939295 0.0173013655234 -157.7947982033 0.0722743860802 37.464110065917
                  0.0720963016732 37.477727219770 0.0173013655234 -157.7947982033 0.0652003791237 36.378380885070 0.9923115187748 -51.57390043304
                  0.0172105210815 -157.2035765879 0.0722743860802 37.464110065917 0.9923115187748 -51.57390043304 0.0651765718719 37.392793866537
0.580000000000000 0.0672771416079 35.357875161903 0.9919401049324 -53.39604487371 0.0744286005726 35.641483376076 0.0176702588936 -159.4883241462
                  0.9919401049324 -53.39604487371 0.0672579845085 34.828525870207 0.0177541708531 -160.1192039778 0.0746059053528 35.619477137242
                  0.0744286005726 35.641483376076 0.0177541708531 -160.1192039778 0.0666638158414 34.512399841773 0.9919651053776 -53.40532135087
                  0.0176702588936 -159.4883241462 0.0746059053528 35.619477137242 0.9919651053776 -53.40532135087 0.0666392538157 35.573585434714
0.600000000000000 0.0686791081137 33.524389397781 0.9915907052855 -55.22636712235 0.0767411999420 33.808625294953 0.0181156393928 -161.7567135409
                  0.9915907052855 -55.22636712235 0.0686576782230 32.973270459526 0.0181906126103 -162.4232697556 0.0769147208890 33.779287022543
                  0.0767411999420 33.808625294953 0.0181906126103 -162.4232697556 0.0680470307741 32.645085870307 0.9916186163868 -55.23601975118
                  0.0181156393928 -161.7567135409 0.0769147208890 33.779287022543 0.9916186163868 -55.23601975118 0.0680218160416 33.754212294484
0.620000000000000 0.0699981995142 31.689958920176 0.9912416336266 -57.05595466901 0.0790340105126 31.978707707016 0.0185467059126 -164.0086586557
                  0.9912416336266 -57.05595466901 0.0699749100935 31.116792542279 0.0186110906454 -164.7067331548 0.0792010444306 31.943247727178
                  0.0790340105126 31.978707707016 0.0186110906454 -164.7067331548 0.0693484464021 30.776457327150 0.9912726917534 -57.06600698333
                  0.0185467059126 -164.0086586557 0.0792010444306 31.943247727178 0.9912726917534 -57.06600698333 0.0693226588980 31.934772815512
0.640000000000000 0.0712327621944 29.854783651997 0.9908935882171 -58.88481929647 0.0813068508888 30.151309376196 0.0189634990520 -166.2441555498
                  0.9908935882171 -58.88481929647 0.0712081299399 29.259186319179 0.0190160096272 -166.9696418091 0.0814650367048 30.111014677507
                  0.0813068508888 30.151309376196 0.0190160096272 -166.9696418091 0.0705665726843 28.906520716705 0.9909279555476 -58.89529660028
                  0.0189634990520 -166.2441555498 0.0814650367048 30.111014677507 0.9909279555476 -58.89529660028 0.0705402695067 30.115361334397
0.660000000000000 0.0723812654306 28.019064557078 0.9905472527370 -60.71297586489 0.0835594517817 28.326044099553 0.0193660496583 -168.4632414370
                  0.9905472527370 -60.71297586489 0.0723558951926 27.400535542187 0.0194057541963 -169.2122632606 0.0837067904279 28.282215841742
                  0.0835594517817 28.326044099553 0.0194057541963 -169.2122632606 0.0717000098777 27.035271338584 0.9905850133639 -60.72390428881
                  0.0193660496583 -168.4632414370 0.0837067904279 28.282215841742 0.9905850133639 -60.72390428881 0.0716732252359 28.296068435796
0.680000000000000 0.0734423073318 26.182998690280 0.9902032900346 -62.54044221873 0.0857914636760 26.502567642479 0.0197543749872 -170.6659593631
                  0.9902032900346 -62.54044221873 0.0734168733184 25.540910846026 0.0197806715797 -171.4350030308 0.0859263211798 26.456472296635
                  0.0857914636760 26.502567642479 0.0197806715797 -171.4350030308 0.0727474512318 25.162693457380 0.9902444497766 -62.55184779101
                  0.0197543749872 -170.6659593631 0.0859263211798 26.456472296635 0.9902444497766 -62.55184779101 0.0727201967764 26.476980946627
0.700000000000000 0.0744146188418 24.346774412707 0.9898623362496 -64.36723904144 0.0880024667994 24.680581331682 0.0201284775922 -172.8523290081
                  0.9898623362496 -64.36723904144 0.0743898429838 23.680367337321 0.0201410608999 -173.6383332963 0.0881235647187 24.633414213616
                  0.0880024667994 24.680581331682 0.0201410608999 -173.6383332963 0.0737076854467 23.288760079037 0.9899068258676 -64.37914681441
                  0.0201284775922 -172.8523290081 0.0881235647187 24.633414213616 0.9899068258676 -64.37914681441 0.0736799507712 24.658181744065
0.720000000000000 0.0752970657593 22.510566893900 0.9895249954534 -66.19338966143 0.0901919824400 22.859832992059 0.0204883464501 -175.0223235629
                  0.9895249954534 -66.19338966143 0.0752736940677 21.818942527267 0.0204871682080 -175.8227332146 0.0902983792750 22.812692566877
                  0.0901919824400 22.859832992059 0.0204871682080 -175.8227332146 0.0745795988177 21.413432413403 0.9895726768638 -66.20582292955
                  0.0204883464501 -175.0223235629 0.0902983792750 22.812692566877 0.9895726768638 -66.20582292955 0.0745513519739 22.839749458335
0.740000000000000 0.0760886487997 20.674534029588 0.9891918349490 -68.01891981493 0.0923594848287 21.040115850285 0.0208339598269 -177.1758522951
                  0.9891918349490 -68.01891981493 0.0760674266859 19.956654666839 0.0208191861871 -177.9886409507 0.0924505514515 20.993987059195
                  0.0923594848287 21.040115850285 0.0208191861871 -177.9886409507 0.0753621770157 19.536659092263 0.9892425099219 -68.03189945471
                  0.0208339598269 -177.1758522951 0.0924505514515 20.993987059195 0.9892425099219 -68.03189945471 0.0753333649394 21.021758132392
0.760000000000000 0.0767885018022 18.838812902968 0.9888633813536 -69.84385737336 0.0945044129699 19.221265951374 0.0211652894200 -179.3127482188
                  0.9888633813536 -69.84385737336 0.0767701494297 18.093501514042 0.0211372574931 179.86358323119 0.0945798045166 19.177010852224
                  0.0945044129699 19.221265951374 0.0211372574931 179.86358323119 0.0760545064807 17.658375198621 0.9889168021002 -69.85740132857
                  0.0211652894200 -179.3127482188 0.0945798045166 19.177010852224 0.9889168021002 -69.85740132857 0.0760250552634 19.204276883675
0.780000000000000 0.0773958882799 17.003516903678 0.9885401175568 -71.66823204480 0.0966261819534 17.403158553164 0.0214823053668 178.56723982674
                  0.9885401175568 -71.66823204480 0.0773810770516 16.229459530901 0.0214414807760 177.73368386904 0.0966858080721 17.361512706481
                  0.0966261819534 17.403158553164 0.0214414807760 177.73368386904 0.0766557754278 15.778501148184 0.9885959985481 -71.68235497199
                  0.0214823053668 178.56723982674 0.0966858080721 17.361512706481 0.9885959985481 -71.68235497199 0.0766255904053 17.387369598738
0.800000000000000 0.0779101965942 15.168733590104 0.9882224806077 -73.49207506034 0.0987241934095 15.585703883770 0.0217849817700 176.46445141041
                  0.9882224806077 -73.49207506034 0.0778995278394 14.364483475609 0.0217319185412 175.62152848923 0.0987681882770 15.547277107030
                  0.0987241934095 15.585703883770 0.0217319185412 175.62152848923 0.0771652744823 13.896941449311 0.9882805109371 -73.50678814084
                  0.0217849817700 176.46445141041 0.0987681882770 15.547277107030 0.9882805109371 -73.50678814084 0.0771342401314 15.571094679967
0.820000000000000 0.0783309341043 13.334523339473 0.9879108605332 -75.31541885668 0.1007978448855 13.768842572037 0.0220733024582 174.37931574994
                  0.9879108605332 -75.31541885668 0.0783249209147 12.498506324899 0.0220086061430 173.52711844827 0.1008265379995 13.734122893418
                  0.1007978448855 13.768842572037 0.0220086061430 173.52711844827 0.0775823969716 12.013583353883 0.9879707161475 -75.33072977180
                  0.0220733024582 174.37931574994 0.1008265379995 13.734122893418 0.9879707161475 -75.33072977180 0.0775503766216 13.755504854593
0.840000000000000 0.0786577206779 11.500918778562 0.9876056000428 -77.13829676580 0.1028465380129 11.952540993625 0.0223472667613 172.31235059291
                  0.9876056000426 -77.13829676579 0.0786567736575 10.631439435576 0.0222715613363 171.45059377740 0.1028604264384 11.921900841310
                  0.1028465380128 11.952540993630 0.0222715613363 171.45059377744 0.0779066389080 10.128295400359 0.9876669552226 -77.15420982302
                  0.0223472667613 172.31235059288 0.1028604264384 11.921900841306 0.9876669552224 -77.15420982302 0.0778734742820 11.940647053129
0.860000000000000 0.0788902819707 9.6679249621897 0.9873069950473 -78.96074272283 0.1048696854071 10.136786714106 0.0226068951353 170.26415928478
                  0.9873069950473 -78.96074272283 0.0788946994766 8.7631728387687 0.0225207939399 169.39223326686 0.1048694078969 10.110490567129
                  0.1048696854071 10.136786714106 0.0225207939399 169.39223326686 0.0781375987294 8.2409258288603 0.9873695325631 -78.97725911289
                  0.0226068951353 170.26415928478 0.1048694078969 10.110490567129 0.9873695325631 -78.97725911289 0.0781031093206 10.126562331557
0.880000000000000 0.0790284428130 7.8355201379899 0.9870152958197 -80.78279099618 0.1068667163051 8.3215841670375 0.0228522345242 168.23542649381
                  0.9870152958197 -80.78279099618 0.0790384058950 6.8935755352505 0.0227563152760 167.35245094069 0.1068530295207 8.2997970590167
                  0.1068667163051 8.3215841670375 0.0227563152760 167.35245094069 0.0782749767554 6.3513008741642 0.9870787154330 -80.79990915511
                  0.0228522345242 168.23542649381 0.1068530295207 8.2997970590167 0.9870787154330 -80.79990915511 0.0782389590767 8.3132859070868
0.900000000000000 0.0790721210678 6.0036570705205 0.9867307087313 -82.60447595228 0.1088370809824 6.5069506491855 0.0230833633749 166.22691294342
                  0.9867307087313 -82.60447595228 0.0790876932645 5.0224956830245 0.0229781471529 165.33178980875 0.1088108378828 6.4897470634092
                  0.1088370809824 6.5069506491855 0.0229781471529 165.33178980875 0.0783185745427 4.4592228613879 0.9867947336400 -82.62219199785
                  0.0230833633749 166.22691294342 0.1088108378828 6.4897470634092 0.9867947336400 -82.62219199785 0.0782808012240 6.5008471783476
0.920000000000000 0.0790213221520 4.1722646660086 0.9864533983254 -84.42583185149 0.1107802540284 4.6929126987269 0.0233003962634 164.23944945444
                  0.9864533983254 -84.42583185149 0.0790424538706 3.1497605369510 0.0231863302313 163.33091375124 0.1107423844010 4.6802855098791
                  0.1107802540284 4.6929126987269 0.0231863302313 163.33091375124 0.0782682940357 2.5644681103345 0.9865177795029 -84.44414006239
                  0.0233003962634 164.23944945444 0.1107423844010 4.6802855098791 0.9865177795029 -84.44414006239 0.0782285127968 4.6892698462536
0.940000000000000 0.0788761344102 2.3412498002974 0.9861834896179 -86.24689268008 0.1126957365735 2.8795028816177 0.0235034881066 162.27393049506
                  0.9861834896179 -86.24689268008 0.0789026715399 1.2751760348951 0.0233809316836 161.35059812826 0.1126472296012 2.8713721002004
                  0.1126957365735 2.8795028816177 0.0233809316836 161.35059812826 0.0781241366363 0.6667845736267 0.9862480080155 -86.26578598605
                  0.0235034881066 162.27393049506 0.1126472296012 2.8713721002004 0.9862480080155 -86.26578598605 0.0780820691174 2.8785720543209
0.960000000000000 0.0786367254098 0.5104991728467 0.9859210704656 -88.06769201546 0.1145830575788 1.0667569978784 0.0236928379524 160.33130738601
                  0.9859210704656 -88.06769201546 0.0786684216214 -0.601474077499 0.0235620521030 159.39171961592 0.1145249462929 1.0629781521194
                  0.1145830575788 1.0667569978784 0.0235620521030 159.39171961592 0.0778862021965 -1.234110839859 0.9859855372146 -88.08716246950
                  0.0236928379524 160.33130738601 0.1145249462929 1.0629781521194 0.9859855372146 -88.08716246950 0.0778415426347 1.0687665657474
0.980000000000000 0.0783033391653 -1.320118952660 0.9856661938781 -89.88826292166 0.1164417743013 -0.745288297632 0.0238686923539 158.41258124886
                  0.9856661938781 -89.88826292166 0.0783398712432 -2.480429674635 0.0237298316563 157.45524562799 0.1163751217455 -0.744916244814
                  0.1164417743013 -0.745288297632 0.0237298316563 157.45524562799 0.0775546879708 -3.138535325958 0.9857304487326 -89.90830212920
                  0.0238686923539 158.41258124886 0.1163751217455 -0.744916244814 0.9857304487326 -89.90830212920 0.0775071016975 -0.740139033339
1.000000000000000 0.0778762942398 -3.150753244558 0.9854188801743 -91.70863787053 0.1182714720499 -2.556597475979 0.0240313483423 156.51879574054
                  0.9854188801743 -91.70863787053 0.0779172797215 -4.361956310544 0.0238844555013 155.54222357386 0.1181973589714 -2.552324729033
                  0.1182714720499 -2.556597475979 0.0238844555013 155.54222357386 0.0771298875568 -5.046843711945 0.9854827885146 -91.72923735589
                  0.0240313483423 156.51879574054 0.1181973589714 -2.552324729033 0.9854827885146 -91.72923735589 0.0770790092817 -2.548142111234
1.020000000000000 0.0773559826298 -4.981568138894 0.9851791189142 -93.52884868308 0.1200717633462 -4.367137739861 0.0241811560155 154.65102957905
                  0.9851791189142 -93.52884868308 0.0774009989974 -6.246347979040 0.0240261585068 153.65377011046 0.1199912772334 -4.359256809537
                  0.1200717633462 -4.367137739861 0.0240261585068 153.65377011046 0.0766121898498 -6.959432546112 0.9852425676854 -93.55000017956
                  0.0241811560155 154.65102957905 0.1199912772334 -4.359256809537 0.9852425676854 -93.55000017956 0.0765576216867 -4.355244754964
1.040000000000000 0.0767428693124 -6.812743097475 0.9849468705647 -95.34892648522 0.1218422865974 -6.176880282368 0.0243185207641 152.81038883474
                  0.9849468705647 -95.34892648522 0.0767914739857 -8.133930637339 0.0241552293276 151.79106046782 0.1217565118946 -6.165719653267
                  0.1218422865974 -6.176880282368 0.0241552293276 151.79106046782 0.0760020780372 -8.876744866734 0.9850097635481 -95.37062214139
                  0.0243185207641 152.81038883474 0.1217565118946 -6.165719653267 0.9850097635481 -95.37062214139 0.0759433872141 -6.161453527600
1.060000000000000 0.0760374923204 -8.644472354972 0.9847220678889 -97.16890167198 0.1235827043843 -7.985801229533 0.0244439051577 150.99799893663
                  0.9847220678889 -97.16890167198 0.0760892427413 -10.02506655652 0.0242720138904 149.95531786277 0.1234927137329 -7.971719530276
                  0.1235827043843 -7.985801229533 0.0242720138904 149.95531786277 0.0753001286558 -10.79927579122 0.9847843206974 -97.19113417284
                  0.0244439051577 150.99799893663 0.1234927137329 -7.971719530276 0.9847843206974 -97.19113417284 0.0752368448385 -7.966779224306
1.080000000000000 0.0752404632108 -10.47696521059 0.9845046170733 -98.98880387504 0.1252927014589 -9.793882298629 0.0245578305107 149.21499632312
                  0.9845046170733 -98.98880387504 0.0752949363772 -11.92015957161 0.0243769183511 148.14780296128 0.1251995478344 -9.777262937607
                  0.1252927014589 -9.793882298629 0.0243769183511 148.14780296128 0.0745070107354 -12.72757909676 0.9845661522339 -99.01156648218
                  0.0245578305107 149.21499632312 0.1251995478344 -9.777262937607 0.9845661522339 -99.01156648218 0.0744386228790 -9.771236632660
1.100000000000000 0.0743524677995 -12.31044691454 0.9842943986273 -100.8086619288 0.1269719825394 -11.60111120427 0.0246608781447 147.46251965117