! Sonnet Data File
! From: em Version : 18.53-Lite
! From Project: Transformer
! Data is De-embedded 
! Data File Written: 06/29/2025 10:10:49
!< HDATE 06/29/2025 10:08:25
!< MDATE 06/29/2025 10:08:25
!< PARAMS
!< L1 = 44.38
!< L2 = 43.33
!< L3 = 42.439520085625
!< W1 = 1.57
!< W2 = 2.7
!< W3 = 4.4
!< END PARAMS
# GHZ S MA R 50.00000
0.100000000000000 0.2984190169578 -130.4377631260 0.9520873893043 -33.03862155604 0.9520873893042 -33.03862155605 0.2992128314587 -115.7154423965
0.120000000000000 0.3472465006743 -138.1169995334 0.9350160154469 -39.20101873278 0.9350160154470 -39.20101873281 0.3482581479842 -120.3814606651
0.140000000000000 0.3916717428170 -145.6491319124 0.9174193161978 -45.15863228047 0.9174193161978 -45.15863228047 0.3927744316799 -124.8308551218
0.160000000000000 0.4311903300459 -153.0065717806 0.8993714766541 -50.94578002434 0.8993714766541 -50.94578002434 0.4324808163864 -129.0689909736
0.180000000000000 0.4658607744208 -160.1795534193 0.8812962396254 -56.54334227070 0.8812962396254 -56.54334227070 0.4674285791923 -133.0678434691
0.200000000000000 0.4960736147526 -167.1891262497 0.8638833193859 -61.95079899501 0.8638833193850 -61.95079899503 0.4979808921490 -136.8306499456
0.220000000000000 0.5222726691191 -174.0733433734 0.8476996558643 -67.18740143946 0.8476996558643 -67.18740143946 0.5245289451016 -140.3814961021
0.240000000000000 0.5448369834787 179.12383630792 0.8330741148252 -72.28120752196 0.8330741148252 -72.28120752196 0.5473722923696 -143.7480714632
0.260000000000000 0.5639816809942 172.36546304660 0.8201042885706 -77.26061563011 0.8201042885706 -77.26061563011 0.5667073424482 -146.9457969830
0.280000000000000 0.5798862713135 165.62833111697 0.8087742008948 -82.14570806384 0.8087742008948 -82.14570806384 0.5827660297960 -149.9801549132
0.300000000000000 0.5927591609554 158.89188504263 0.7990940900705 -86.95182917410 0.7990940900705 -86.95182917410 0.5958112366793 -152.8568691338
0.320000000000000 0.6028218095084 152.13466170596 0.7910902183324 -91.69472588006 0.7910902183320 -91.69472588012 0.6061024600880 -155.5829252520
0.340000000000000 0.6102968641540 145.33341228249 0.7847734658667 -96.39104841535 0.7847734658667 -96.39104841535 0.6138796229514 -158.1660331415
0.360000000000000 0.6153975590564 138.46242423373 0.7801330858164 -101.0576386421 0.7801330858164 -101.0576386421 0.6193526461434 -160.6138320992
0.380000000000000 0.6183191655505 131.49325488825 0.7771416064611 -105.7111674638 0.7771416064611 -105.7111674638 0.6226974421888 -162.9329752650
0.400000000000000 0.6192335522744 124.39494501319 0.7757586991898 -110.3681789312 0.7757586991898 -110.3681789312 0.6240583088183 -165.1282542939
0.420000000000000 0.6182881842388 117.13454748967 0.7759301955422 -115.0453229599 0.7759301955422 -115.0453229599 0.6235551679151 -167.2018960631
0.440000000000000 0.6156100100143 109.67776979159 0.7775800144945 -119.7595397220 0.7775800144945 -119.7595397220 0.6212936446855 -169.1530951661
0.460000000000000 0.6113134426396 101.98961445387 0.7805941599087 -124.5275844359 0.7805941599087 -124.5275844359 0.6173762346263 -170.9777747341
0.480000000000000 0.6055111799125 94.035007840053 0.7848104687833 -129.3641861375 0.7848104687833 -129.3641861375 0.6119134823545 -172.6685335006
0.500000000000000 0.5983266315932 85.779476588546 0.7900359984433 -134.2801671616 0.7900359984433 -134.2801671616 0.6050348094520 -174.2147554651
0.520000000000000 0.5899067580519 77.189978724234 0.7960745727438 -139.2828099609 0.7960745727438 -139.2828099609 0.5968989354336 -175.6029202045
0.540000000000000 0.5804341802651 68.236033410554 0.8027313198082 -144.3774333759 0.8027313198082 -144.3774333759 0.5877035420025 -176.8172188273
0.560000000000000 0.5701374224813 58.891298784103 0.8097979266923 -149.5680042185 0.8097979266923 -149.5680042185 0.5776931893738 -177.8406154408
0.580000000000000 0.5592978701904 49.135709220608 0.8170413152968 -154.8563708151 0.8170413152968 -154.8563708151 0.5671638816613 -178.6564848855
0.600000000000000 0.5482515158981 38.958201282716 0.8242077530588 -160.2412017172 0.8242077530582 -160.2412017172 0.5564622860766 -179.2508993227
0.620000000000000 0.5373848428471 28.360771438966 0.8310313379744 -165.7179117733 0.8310313379744 -165.7179117733 0.5459782053743 -179.6161201232
0.640000000000000 0.5271141066364 17.359191667671 0.8372685381868 -171.2771876432 0.8372685381868 -171.2771876432 0.5361228497174 -179.7517348376
0.660000000000000 0.5178646108167 5.9883913701273 0.8426930220663 -176.9069174817 0.8426930220663 -176.9069174817 0.5273108178370 -179.6700276027
0.680000000000000 0.5100342812747 -5.696677252807 0.8471202732588 177.40783230870 0.8471202732588 177.40783230870 0.5199207228733 -179.3971894241
0.700000000000000 0.5039529681088 -17.62187961384 0.8504200916156 171.68400287918 0.8504200916156 171.68400287918 0.5142570728325 -178.9734712010
0.720000000000000 0.4998437395538 -29.69779447239 0.8525252733234 165.93957449335 0.8525252733234 165.93957449335 0.5105155046018 -178.4508024718
0.740000000000000 0.4977949026564 -41.82660900764 0.8534351168866 160.19252564339 0.8534351168866 160.19252564339 0.5087591053907 -177.8879099450
0.760000000000000 0.4977497003251 -53.91096790396 0.8532132762069 154.45981303097 0.8532132762069 154.45981303097 0.5089119922925 -177.3438404409
0.780000000000000 0.4995162273995 -65.86296815230 0.8519803476288 148.75646537590 0.8519803476288 148.75646537590 0.5107719550008 -176.8714290416
0.800000000000000 0.5027946297133 -77.61140596320 0.8499023721246 143.09486625697 0.8499023721246 143.09486625697 0.5140387192893 -176.5122559773
0.820000000000000 0.5072144891833 -89.10603459549 0.8471769305424 137.48427050384 0.8471769305424 137.48427050384 0.5183507095068 -176.2940116283
0.840000000000000 0.5123740374357 -100.3186020429 0.8440186031984 131.93056398951 0.8440186031984 131.93056398951 0.5233224261435 -176.2303224539
0.860000000000000 0.5178744088925 -111.2412930493 0.8406453018490 126.43624722846 0.8406453018490 126.43624722846 0.5285763440866 -176.3224217691
0.880000000000000 0.5233452005585 -121.8836041436 0.8372665149967 121.00060426673 0.8372665149967 121.00060426673 0.5337661852020 -176.5617889161
0.900000000000000 0.5284606106582 -132.2686475918 0.8340740006076 115.62001004308 0.8340740006076 115.62001004308 0.5385911622877 -176.9329733492
0.920000000000000 0.5329474682391 -142.4296006368 0.8312350181527 110.28832914099 0.8312350181527 110.28832914099 0.5428026018537 -177.4160859088
0.940000000000000 0.5365873944814 -152.4066860299 0.8288878597681 104.99736453174 0.8288878597681 104.99736453174 0.5462051448276 -177.9887163511
0.960000000000000 0.5392154472142 -162.2448047073 0.8271392338885 99.737324968550 0.8271392338885 99.737324968550 0.5486547670365 -178.6272407257
0.980000000000000 0.5407172656867 -171.9917749591 0.8260629640907 94.497291699783 0.8260629640907 94.497291699783 0.5500555021906 -179.3075995172
1.000000000000000 0.5410262310607 178.30295114764 0.8256994555681 89.265675255129 0.8256994555681 89.265675255129 0.5503562592533 179.99432186633
1.020000000000000 0.5401216469752 168.58925517943 0.8260554414962 84.030655957760 0.8260554414962 84.030655957760 0.5495486503824 179.30256553431
1.040000000000000 0.5380284862040 158.81717206687 0.8271037658068 78.780596085584 0.8271037658068 78.780596085584 0.5476663235219 178.64108270669
1.060000000000000 0.5348188423729 148.93773087153 0.8287835059796 73.504416460264 0.8287835059796 73.504416460264 0.5447859023071 178.03368283399
1.080000000000000 0.5306148326841 138.90398580223 0.8310010866962 68.191971620963 0.8310010866962 68.191971620963 0.5410292422852 177.50380848932
1.100000000000000 0.5255922704630 128.67240628182 0.8336324105525 62.834482819580 0.8336324105525 62.834482819580 0.5365662980989 177.07399461094
1.120000000000000 0.5199839308438 118.20478369578 0.8365254522213 57.425020590532 0.8365254522213 57.425020590532 0.5316174552732 176.76487962041
1.140000000000000 0.5140806796894 107.47077095000 0.8395035553157 51.958958483413 0.8395035553157 51.958958483413 0.5264537298856 176.59366927181
1.160000000000000 0.5082282194859 96.451070202165 0.8423706057687 46.434341636213 0.8423706057687 46.434341636213 0.5213928618591 176.57203528444
1.180000000000000 0.5028169414188 85.141093109857 0.8449190544235 40.852169599821 0.8449190544235 40.852169599821 0.5167892103474 176.70358299352
1.200000000000000 0.4982626918976 73.554624734069 0.8469406114365 35.216602714259 0.8469406114365 35.216602714259 0.5130157880022 176.98124929105
1.220000000000000 0.4949774574498 61.726665311847 0.8482387115944 29.535037966260 0.8482387115944 29.535037966260 0.5104380565483 177.38525811168
1.240000000000000 0.4933310893381 49.713903554572 0.8486466512969 23.818146368597 0.8486466512968 23.818146368598 0.5093796962925 177.88282351474
1.260000000000000 0.4936206915850 37.594523802328 0.8480109628702 18.079717642483 0.8480109628702 18.079717642483 0.5100823836622 178.42755392768
1.280000000000000 0.4960021789132 25.463229573787 0.8462271509945 12.333140334229 0.8462271509945 12.333140334229 0.5127075310384 178.96397134204
1.300000000000000 0.5004794568284 13.415097400864 0.8433153501888 6.5961759893671 0.8433153501888 6.5961759893671 0.5172648178356 179.43848216832
1.320000000000000 0.5069556129357 1.5482706502172 0.8392737208400 0.8866878922812 0.8392737208400 0.8866878922812 0.5236338538695 179.79485910597
1.340000000000000 0.5151744810817 -10.05122737593 0.8341928359768 -4.778777465151 0.8341928359768 -4.778777465151 0.5315842283871 179.98740987642
1.360000000000000 0.5247828502410 -21.31475417193 0.8282164564263 -10.38473458190 0.8282164564263 -10.38473458190 0.5407928038431 179.98268927391
1.380000000000000 0.5353673102252 -32.19371305563 0.8215323517051 -15.91777957411 0.8215323517051 -15.91777957411 0.5508799439580 179.76074736991
1.400000000000000 0.5464934659239 -42.65946179314 0.8143602786585 -21.36720288582 0.8143602786585 -21.36720288582 0.5614447533660 179.31421640366
1.420000000000000 0.5577390373224 -52.70110455283 0.8069389293222 -26.72537128110 0.8069389293222 -26.72537128110 0.5720949611909 178.64593256758
1.440000000000000 0.5687172322697 -62.32220414199 0.7995135186361 -31.98789526246 0.7995135186361 -31.98789526246 0.5824684279319 177.76592818398
1.460000000000000 0.5790898412052 -71.53727118798 0.7923251849622 -37.15361002707 0.7923251849622 -37.15361002707 0.5922456013883 176.68846901977
1.480000000000000 0.5885714474248 -80.36856920171 0.7856028576603 -42.22441210171 0.7856028576603 -42.22441210171 0.6011539595017 175.42954446417
1.500000000000000 0.5969270185242 -88.84348381253 0.7795577623572 -47.20499950310 0.7795577623572 -47.20499950310 0.6089663322594 174.00497152985
1.520000000000000 0.6039652243866 -96.99250573043 0.7743803579986 -52.10256115287 0.7743803579986 -52.10256115287 0.6154951533050 172.42910429599
1.540000000000000 0.6095294637733 -104.8477697964 0.7702392606976 -56.92645389144 0.7702392606976 -56.92645389144 0.6205844300982 170.71405210759
1.560000000000000 0.6134880568678 -112.4420503521 0.7672815985949 -61.68789555925 0.7672815985949 -61.68789555925 0.6241007846212 168.86928147579
1.580000000000000 0.6157245494695 -119.8081080265 0.7656342270491 -66.39969247229 0.7656342270491 -66.39969247229 0.6259244689035 166.90148329984
1.600000000000000 0.6161286586934 -126.9782943621 0.7654052746855 -71.07601064892 0.7654052746855 -71.07601064892 0.6259408869233 164.81460952308
1.620000000000000 0.6145880952279 -133.9843357894 0.7666855493081 -75.73219301652 0.7666855493081 -75.73219301652 0.6240328878326 162.61000987926
1.640000000000000 0.6109813344982 -140.8572295824 0.7695493688708 -80.38461907796 0.7695493688708 -80.38461907796 0.6200739355105 160.28662417359
1.660000000000000 0.6051714413274 -147.6271892723 0.7740543641952 -85.05059507896 0.7740543641952 -85.05059507896 0.6139221940305 157.84120655681
1.680000000000000 0.5970013595850 -154.3235967851 0.7802398377230 -89.74824207764 0.7802398377230 -89.74824207764 0.6054155832606 155.26857554216
1.700000000000000 0.5862910073393 -160.9749980790 0.7881238024132 -94.49633593038 0.7881238024132 -94.49633593038 0.5943679418832 152.56189817145
1.720000000000000 0.5728349372855 -167.6091704247 0.7976992277818 -99.31412879610 0.7976992277818 -99.31412879610 0.5805665799550 149.71303034647
1.740000000000000 0.5564000463162 -174.2530085811 0.8089282052366 -104.2212098145 0.8089282052366 -104.2212098145 0.5637717069814 146.71294976959
1.760000000000000 0.5367267488962 179.06793603718 0.8217325555021 -109.2372689636 0.8217325555021 -109.2372689636 0.5437184806242 143.55233532400
1.780000000000000 0.5135353403377 172.33011768912 0.8359821767000 -114.3816453086 0.8359821767000 -114.3816453086 0.5201227194876 140.22236984716
1.800000000000000 0.4865372027187 165.51291523920 0.8514823188636 -119.6726811724 0.8514823188636 -119.6726811724 0.4926916118760 136.71587711482
1.820000000000000 0.4554519748018 158.60004886330 0.8679604284406 -125.1268752266 0.8679604284406 -125.1268752266 0.4611409254592 133.02896096916
1.840000000000000 0.4200323767889 151.58179555365 0.8850542313100 -130.7578011230 0.8850542313100 -130.7578011230 0.4252201077075 129.16342916999
1.860000000000000 0.3800976061948 144.45853136425 0.9023040394095 -136.5747919122 0.9023040394095 -136.5747919122 0.3847460364604 125.13055254854
1.880000000000000 0.3355747283201 137.24681026798 0.9191533645830 -142.5814521234 0.9191533645830 -142.5814521234 0.3396448089183 120.95741712883
1.900000000000000 0.2865452991371 129.99121926562 0.9349624852631 -148.7741400319 0.9349624852631 -148.7741400319 0.2899988017260 116.69921995421
1.920000000000000 0.2332920948905 122.79216057913 0.9490390037728 -155.1406534619 0.9490390037728 -155.1406534619 0.2360939079703 112.46798679799
1.940000000000000 0.1763409598683 115.88855388016 0.9606869598112 -161.6594280154 0.9606869598112 -161.6594280154 0.1784622166683 108.51791953550
1.960000000000000 0.1165100114085 110.00172348561 0.9692715002577 -168.2995757019 0.9692715002577 -168.2995757019 0.1179340493949 105.59984583451
1.980000000000000 0.0551904268361 108.99464083412 0.9742902875775 -175.0220124541 0.9742902875775 -175.0220124541 0.0559407572592 107.69466594899
2.000000000000000 0.0158474175631 -146.3594816075 0.9754378982875 178.21827083256 0.9754378982889 178.21827083232 0.0163707060401 -146.0470931012
2.020000000000000 0.0732556351383 -110.7299339091 0.9726485096041 171.46893931225 0.9726485096041 171.46893931225 0.0741957587868 -106.9836286139
2.040000000000000 0.1340738621597 -114.2267689054 0.9661044562080 164.77672773117 0.9661044562080 164.77672773117 0.1357058521299 -107.4379372121
2.060000000000000 0.1927212552158 -120.5455496884 0.9562097231473 158.18403351499 0.9562097231473 158.18403351499 0.1950499910932 -110.7834104882
2.080000000000000 0.2480970172768 -127.5615672846 0.9435358772255 151.72606782490 0.9435358772255 151.72606782490 0.2511039284649 -114.8247322823
2.100000000000000 0.2995127551064 -134.7767421699 0.9287527050917 145.42916187969 0.9287527050917 145.42916187969 0.3031728284926 -119.0406809072
2.120000000000000 0.3465503512614 -142.0110808753 0.9125585939030 139.31024482160 0.9125585939030 139.31024482160 0.3508380163738 -123.2374879844
2.140000000000000 0.3890176530147 -149.1870082114 0.8956231639484 133.37722811344 0.8956231639484 133.37722811344 0.3939086757002 -127.3265246732
2.160000000000000 0.4269038771485 -156.2716796791 0.8785469807656 127.63003569261 0.8785469807656 127.63003569261 0.4323759955963 -131.2641877039
2.180000000000000 0.4603299097407 -163.2556882162 0.8618390515847 122.06208752191 0.8618390515847 122.06208752191 0.4663653164775 -135.0300065693
2.200000000000000 0.4895040650705 -170.1432655480 0.8459103153631 116.66184702926 0.8459103153631 116.66184702926 0.4960911850422 -138.6167006914
2.220000000000000 0.5146849866018 -176.9472199937 0.8310775245891 111.41422128895 0.8310775245891 111.41422128895 0.5218194002598 -142.0248217950
2.240000000000000 0.5361524484859 176.31408599445 0.8175730161605 106.30177706819 0.8175730161605 106.30177706819 0.5438378804035 -145.2595525798
2.260000000000000 0.5541873730226 169.61861263734 0.8055580315706 101.30573783117 0.8055580315706 101.30573783117 0.5624347813014 -148.3286635834
2.280000000000000 0.5690572651709 162.94169555346 0.7951362822111 96.406644702394 0.7951362822111 96.406644702394 0.5778841552937 -151.2409737166
2.300000000000000 0.5810069689113 156.25696624818 0.7863647648788 91.584857883433 0.7863647648788 91.584857883433 0.5904385687054 -154.0053654555
2.320000000000000 0.5902559436801 149.53684366297 0.7792636108683 86.820965099458 0.7792636108683 86.820965099458 0.6003251904855 -156.6301170350
2.340000000000000 0.5969977024239 142.75274700297 0.7738240495330 82.096031028909 0.7738240495330 82.096031028909 0.6077450032608 -159.1223838576
2.360000000000000 0.6014013628711 135.87521484418 0.7700140107600 77.391764720896 0.7700140107600 77.391764720896 0.6128743952216 -161.4878007024
2.380000000000000 0.6036149814039 128.87395002609 0.7677817618609 72.690647161090 0.7677817618609 72.690647161090 0.6158684328654 -163.7301631453
2.400000000000000 0.6037702518351 121.71782890015 0.7670578989456 67.976043413910 0.7670578989456 67.976043413910 0.6168654133561 -165.8511580100
2.420000000000000 0.6019883637129 114.37491734429 0.7677560008412 63.232320300130 0.7677560008412 63.232320300130 0.6159924848254 -167.8501286410
2.440000000000000 0.5983869417890 106.81253759514 0.7697722695979 58.444986532888 0.7697722695979 58.444986532888 0.6133722318593 -169.7238766468
2.460000000000000 0.5930880316659 98.997436098429 0.7729845089686 53.600867636047 0.7729845089686 53.600867636047 0.6091301596609 -171.4665192351
2.480000000000000 0.5862270551710 90.896113806564 0.7772508356280 48.688322818675 0.7772508356280 48.688322818675 0.6034029671684 -173.0694418107
2.500000000000000 0.5779625184537 82.475396275892 0.7824085759097 43.697504862149 0.7824085759097 43.697504862149 0.5963473643188 -174.5214095190
2.520000000000000 0.5684859979560 73.703339767118 0.7882738628394 38.620656569343 0.7882738628394 38.620656569343 0.5881489493346 -175.8089273598
2.540000000000000 0.5580315429260 64.550586431750 0.7946424931193 33.452428282825 0.7946424931193 33.452428282825 0.5790303161026 -176.9169612805
2.560000000000000 0.5468831315111 54.992285809602 0.8012926003285 28.190190780450 0.8012926003285 28.190190780450 0.5692571340155 -177.8301416458
2.580000000000000 0.5353782668910 45.010671513671 0.8079896117859 22.834307631613 0.8079896117859 22.834307631613 0.5591405079291 -178.5345478855
2.600000000000000 0.5239053538930 34.598291282484 0.8144937487308 17.388322834035 0.8144937487308 17.388322834035 0.5490336331416 -179.0200952577
2.620000000000000 0.5128924217539 23.761702108286 0.8205699883782 11.859015942637 0.8205699883782 11.859015942637 0.5393208402431 -179.2833900300
2.640000000000000 0.5027854152075 12.525145342234 0.8259999549937 6.2562807902875 0.8259999549937 6.2562807902875 0.5303978503770 -179.3306875130
2.660000000000000 0.4940159940682 0.9333558166998 0.8305947182010 0.5927972968074 0.8305947182010 0.5927972968074 0.5226436274231 -179.1803265197
2.680000000000000 0.4869615949113 -10.94761565289 0.8342070687615 -5.116511221316 0.8342070687615 -5.116511221316 0.5163865306000 -178.8638398215
2.700000000000000 0.4819038204540 -23.03263258960 0.8367416505377 -10.85521324697 0.8367416505377 -10.85521324697 0.5118699666535 -178.4250119072
2.720000000000000 0.4789961951692 -35.22366215694 0.8381626072731 -16.60637670738 0.8381626072731 -16.60637670738 0.5092224733193 -177.9164622015
2.740000000000000 0.4782431436756 -47.41813536724 0.8384941465250 -22.35345394778 0.8384941465250 -22.35345394778 0.5084442261163 -177.3943632500
2.760000000000000 0.4794981236399 -59.51839712069 0.8378159462811 -28.08102771506 0.8378159462811 -28.08102771506 0.5094110248132 -176.9125210460
2.780000000000000 0.4824871079932 -71.44106772960 0.8362565856463 -33.77570083960 0.8362565856463 -33.77570083960 0.5118903945974 -176.5168177242
2.800000000000000 0.4868445929571 -83.12323159930 0.8339825518645 -39.42671282353 0.8339825518645 -39.42671282353 0.5155710104716 -176.2414387668
2.820000000000000 0.4921554638717 -94.52504696096 0.8311854226569 -45.02634269253 0.8311854226569 -45.02634269253 0.5200971359220 -176.1073407625
2.840000000000000 0.4979943813430 -105.6291224958 0.8280687481830 -50.57009129366 0.8280687481830 -50.57009129366 0.5251015831048 -176.1227622529
2.860000000000000 0.5039571129485 -116.4377033101 0.8248359031339 -56.05666202949 0.8248359031339 -56.05666202949 0.5302326463649 -176.2851230329
2.880000000000000 0.5096816654955 -126.9688448999 0.8216797587439 -61.48777627843 0.8216797587439 -61.48777627843 0.5351730144562 -176.5835446143
2.900000000000000 0.5148598196604 -137.2525056843 0.8187745664121 -66.86786724758 0.8187745664121 -66.86786724758 0.5396508405279 -177.0013662126
2.920000000000000 0.5192412123886 -147.3271111397 0.8162700511185 -72.20369498349 0.8162700511185 -72.20369498349 0.5434444854226 -177.5182738261
2.940000000000000 0.5226325827299 -157.2368108942 0.8142874395270 -77.50391834113 0.8142874395270 -77.50391834113 0.5463829634991 -178.1118872776
2.960000000000000 0.5248945865694 -167.0294291773 0.8129170063740 -82.77864980655 0.8129170063740 -82.77864980655 0.5483440592869 -178.7588092913
2.980000000000000 0.5259380690068 -176.7549916362 0.8122166963738 -88.03900870598 0.8122166963738 -88.03900870598 0.5492517235565 -179.4352291174
3.000000000000000 0.5257211073299 173.53533606861 0.8122114383202 -93.29667928257 0.8122114383202 -93.29667928257 0.5490739001349 179.88278913621
3.020000000000000 0.5242476188613 163.79007416608 0.8128928835554 -98.56347338814 0.8128928835554 -98.56347338814 0.5478214866233 179.21919324224
3.040000000000000 0.5215678850334 153.95819503435 0.8142194475587 -103.8508936126 0.8142194475587 -103.8508936126 0.5455487235682 178.59786442497
3.060000000000000 0.5177809405138 143.99000569459 0.8161166922895 -109.1696917833 0.8161166922895 -109.1696917833 0.5423549217028 178.04243386036
3.080000000000000 0.5130383594891 133.83832586861 0.8184782428981 -114.5294199774 0.8184782428981 -114.5294199774 0.5383870414295 177.57585295676
3.100000000000000 0.5075484899019 123.46014209533 0.8211675692163 -119.9379764395 0.8211675692163 -119.9379764395 0.5338422045581 177.21957922096
3.120000000000000 0.5015796190989 112.81890138054 0.8240210585427 -125.4011567850 0.8240210585427 -125.4011567850 0.5289687486293 176.99226051692
3.140000000000000 0.4954599445973 101.88754470107 0.8268528333363 -130.9222309148 0.8268528333363 -130.9222309148 0.5240639934088 176.90786084558
3.160000000000000 0.4895717265063 90.652233529874 0.8294616932632 -136.5015768193 0.8294616932632 -136.5015768193 0.5194666318973 176.97329406868
3.180000000000000 0.4843369171230 79.116457959316 0.8316403583604 -142.1364117834 0.8316403583604 -142.1364117834 0.5155418356299 177.18583027654
3.200000000000000 0.4801923258974 67.304839281498 0.8331868516744 -147.8206665692 0.8331868516744 -147.8206665692 0.5126580676911 177.53078842441
3.220000000000000 0.4775543685813 55.265551281189 0.8339174158299 -153.5450458991 0.8339174158299 -153.5450458991 0.5111563994299 177.98024226093
3.240000000000000 0.4767766552957 43.070103412651 0.8336798875772 -159.2973066705 0.8336798875772 -159.2973066705 0.5113156346738 178.49349880828
3.260000000000000 0.4781072820931 30.809530502722 0.8323660795666 -165.0627634256 0.8323660795666 -165.0627634256 0.5133190076205 179.01982006224
3.280000000000000 0.4816550534274 18.586939485746 0.8299215743524 -170.8250012218 0.8299215743524 -170.8250012218 0.5172294552271 179.50323938038
3.300000000000000 0.4873732325347 6.5076119591497 0.8263515192698 -176.5667447502 0.8263515192698 -176.5667447502 0.5229794524544 179.88858683954
3.320000000000000 0.4950652758294 -5.331172218047 0.8217215311926 177.72919329440 0.8217215311926 177.72919329440 0.5303780717639 -179.8726501222
3.340000000000000 0.5044108703185 -16.84832189136 0.8161535749991 172.07897512212 0.8161535749991 172.07897512212 0.5391334842371 -179.8179604910
3.360000000000000 0.5150052592966 -27.98368563756 0.8098174804358 166.49689992976 0.8098174804358 166.49689992976 0.5488854170820 -179.9717133223
3.380000000000000 0.5264025376981 -38.69915706068 0.8029194014585 160.99473497486 0.8029194014585 160.99473497486 0.5592405126432 179.65464772011
3.400000000000000 0.5381546614128 -48.97692333929 0.7956888508673 155.58125690996 0.7956888508673 155.58125690996 0.5698042897874 179.06068974476
3.420000000000000 0.5498410331301 -58.81606510179 0.7883659195679 150.26201290652 0.7883659195679 150.26201290652 0.5802056437673 178.25416859717
3.440000000000000 0.5610869576961 -68.22861746730 0.7811899789021 145.03928305022 0.7811899789021 145.03928305022 0.5901123718957 177.24803782207
3.460000000000000 0.5715718309971 -77.23584815150 0.7743906926480 139.91220563090 0.7743906926480 139.91220563090 0.5992382301872 176.05778764186
3.480000000000000 0.5810292886227 -85.86513504460 0.7681816647901 134.87701701087 0.7681816647901 134.87701701087 0.6073431864159 174.69935413127
3.500000000000000 0.5892418941456 -94.14755143556 0.7627566235695 129.92735728818 0.7627566235695 129.92735728818 0.6142289164889 173.18764212156
3.520000000000000 0.5960326777416 -102.1161113838 0.7582877521223 125.05459960441 0.7582877521223 125.05459960441 0.6197314510735 171.53559093107
3.540000000000000 0.6012552946422 -109.8045619954 0.7549256297170 120.24817107437 0.7549256297170 120.24817107437 0.6237124839372 169.75366530152
3.560000000000000 0.6047839983732 -117.2465965748 0.7528002119073 115.49584392168 0.7528002119073 115.49584392168 0.6260503976992 167.84965036966
3.580000000000000 0.6065041405798 -124.4753747491 0.7520223084024 110.78398505857 0.7520223084024 110.78398505857 0.6266316588720 165.82864770998
3.600000000000000 0.6063035589308 -131.5232558613 0.7526850786673 106.09776060136 0.7526850786673 106.09776060136 0.6253429298718 163.69319523042
3.620000000000000 0.6040649943397 -138.4216715645 0.7548651325321 101.42129858217 0.7548651325321 101.42129858217 0.6220640495262 161.44345936243
3.640000000000000 0.5996595696061 -145.2010789861 0.7586228804931 96.737818598585 0.7586228804931 96.737818598585 0.6166619355624 159.07747049507
3.660000000000000 0.5929413429726 -151.8909459728 0.7640018187775 92.029741778390 0.7640018187775 92.029741778390 0.6089854478553 156.59139156773
3.680000000000000 0.5837430059589 -158.5197246672 0.7710264590792 87.278798769400 0.7710264590792 87.278798769400 0.5988613074662 153.97982613532
3.700000000000000 0.5718729152640 -165.1147690375 0.7796986319513 82.466157976695 0.7796986319513 82.466157976695 0.5860912860933 151.23618770428
3.720000000000000 0.5571138281284 -171.7021455926 0.7899919247436 77.572601241158 0.7899919247436 77.572601241158 0.5704510594929 148.35316880099
3.740000000000000 0.5392239438533 -178.3062731702 0.8018440886735 72.578779502451 0.8018440886735 72.578779502451 0.5516913520419 145.32336882970
3.760000000000000 0.5179411273869 175.05069553943 0.8151474061939 67.465586048753 0.8151474061939 67.465586048753 0.5295422744441 142.14016858050
3.780000000000000 0.4929914693402 168.34987780463 0.8297373020293 62.214688165085 0.8297373020293 62.214688165085 0.5037220379465 138.79898430892
3.800000000000000 0.4641035483716 161.57724900651 0.8453799662377 56.809256551350 0.8453799662377 56.809256551350 0.4739514438454 135.29911325194
3.820000000000000 0.4310297811288 154.72615734650 0.8617604760729 51.234921522351 0.8617604760729 51.234921522351 0.4399755706485 131.64653792402
3.840000000000000 0.3935758922701 147.80142486102 0.8784738370041 45.480960244575 0.8784738370041 45.480960244575 0.4015937342470 127.85839983649
3.860000000000000 0.3516386273540 140.82647768933 0.8950223690460 39.541674744065 0.8950223690460 39.541674744065 0.3586979002392 123.97069742051
3.880000000000000 0.3052503469393 133.85710080322 0.9108236028506 33.417853943631 0.9108236028506 33.417853943631 0.3113182925745 120.05307616604
3.900000000000000 0.2546277394939 127.01212564646 0.9252327604930 27.118130445936 0.9252327604930 27.118130445936 0.2596737365283 116.24177577802
3.920000000000000 0.2002237371039 120.55621004110 0.9375823161168 20.659963413431 0.9375823161168 20.659963413431 0.2042269273910 112.82836647235
3.940000000000000 0.1428029019281 115.18870595974 0.9472376430315 14.069936816664 0.9472376430315 14.069936816664 0.1457699695388 110.56839806867
3.960000000000000 0.0837354644156 113.56562579703 0.9536627061252 7.3830983809708 0.9536627061252 7.3830983809708 0.0857687561207 112.29330694894
3.980000000000000 0.0291960102454 139.36199836597 0.9564846549614 0.6412055741914 0.9564846549614 0.6412055741914 0.0310579748723 141.98824263476
4.000000000000000 0.0481679613039 -125.1742284002 0.9555434041208 -6.110022609584 0.9555434041209 -6.110022609581 0.0499207311041 -123.5145363000
4.020000000000000 0.1060859455031 -117.9452925284 0.9509106990866 -12.82439766121 0.9509106990866 -12.82439766121 0.1085075176679 -112.5220592776
4.040000000000000 0.1641836658880 -121.6370256445 0.9428823083586 -19.45859506017 0.9428823083586 -19.45859506017 0.1676020721295 -112.9858343840
4.060000000000000 0.2197783599820 -127.5462094157 0.9319406814095 -25.97507895752 0.9319406814095 -25.97507895752 0.2242414232797 -115.8018581214
4.080000000000000 0.2718632464025 -134.1809593351 0.9186910295664 -32.34434125481 0.9186910295664 -32.34434125481 0.2773635620058 -119.3726604066
4.100000000000001 0.3198599488468 -141.0767456582 0.9037945060885 -38.54592306526 0.9037945060885 -38.54592306526 0.3263724239943 -123.1931990953