! Sonnet Data File
! From: sonnet Version : 18.53-Lite
! From Emgraph Data: 
! Data File Written: 07/02/2025 05:58:26
!< HDATE 07/02/2025 05:53:16
!< MDATE 07/02/2025 05:53:16
!< PARAMS
!< W_50 = 1.13
!< L0 = 45.0
!< W_100 = 0.272
!< L1 = 47.3
!< END PARAMS
# GHZ S MA R 50.00000
0.100000000000000 0.3292949264789 142.29002394756 0.6648748204599 -18.31565918527 0.6651958488391 -18.21865414013
                  0.6648748204599 -18.31565918527 0.3822040856783 125.05493127974 0.6325742287789 -28.95729120238
                  0.6651958488392 -18.21865414014 0.6325742287789 -28.95729120238 0.3816870105275 125.21474556084
0.120000000000000 0.3287872219838 134.77829194798 0.6648293656457 -21.96205062939 0.6652144356215 -21.84583595202
                  0.6648293656457 -21.96205062939 0.4008010064233 116.43558051028 0.6206462645956 -34.43620965560
                  0.6652144356215 -21.84583595202 0.6206462645956 -34.43620965560 0.3999340813929 116.59273065276
0.140000000000000 0.3280391629999 127.17123159253 0.6645839324323 -25.62010800295 0.6651410734048 -25.49482793562
                  0.6645839324322 -25.62010800294 0.4197521742356 108.57134801159 0.6075641413192 -39.74676751163
                  0.6651410734047 -25.49482793562 0.6075641413192 -39.74676751164 0.4189075957728 108.75568840247
0.160000000000000 0.3271006530220 119.50218794570 0.6641829679123 -29.28058357888 0.6649438609718 -29.15319302367
                  0.6641829679123 -29.28058357888 0.4386710985205 101.40623186846 0.5936918100695 -44.89816542697
                  0.6649438609718 -29.15319302367 0.5936918100695 -44.89816542697 0.4380039515285 101.63206205913
0.180000000000000 0.3260834665132 111.79627339366 0.6637022219866 -32.93805196517 0.6646576656708 -32.81220739709
                  0.6637022219866 -32.93805196517 0.4572265146859 94.879380376954 0.5793021755303 -49.89873929971
                  0.6646576656708 -32.81220739709 0.5793021755303 -49.89873929971 0.4567581743195 95.148643350471
0.200000000000000 0.3251191362397 104.06792743393 0.6632171520975 -36.59115520750 0.6643406188039 -36.46787671319
                  0.6632171520975 -36.59115520750 0.4751646988508 88.929434625382 0.5646097997996 -54.75533907945
                  0.6643406188039 -36.46787671319 0.5646097997996 -54.75533907945 0.4748427744404 89.236310517575
0.220000000000000 0.3243274612502 96.322826605804 0.6627827418710 -40.24140822336 0.6640439746109 -40.11997792365
                  0.6627827418710 -40.24140822336 0.4923101420037 83.497114042765 0.5497906246146 -59.47369285247
                  0.6640439746109 -40.11997792365 0.5497906246146 -59.47369285247 0.4920501000293 83.832037574714
0.240000000000000 0.3238013624869 88.561275076210 0.6624267509986 -43.89171460777 0.6637982280838 -43.77048779034
                  0.6624267509986 -43.89171460777 0.5085555641304 78.526732532846 0.5349917592380 -64.05894315715
                  0.6637982280838 -43.77048779034 0.5349917592380 -64.05894315715 0.5082678847836 78.879224867139
0.260000000000000 0.3236040202031 80.781387367704 0.6621518538230 -47.54517023489 0.6636109840196 -47.42217352676
                  0.6621518538230 -47.54517023489 0.5238481935328 73.967010204996 0.5203360053240 -68.51603016027
                  0.6636109840196 -47.42217352676 0.5203360053240 -68.51603016027 0.5234544813491 74.327381703813
0.280000000000000 0.3237726490621 72.981411622001 0.6619418643308 -51.20430739926 0.6634710698380 -51.07762211546
                  0.6619418643308 -51.20430739926 0.5381760926176 69.771405972625 0.5059243825483 -72.84987715562
                  0.6634710698380 -51.07762211546 0.5059243825483 -72.84987715562 0.5376171846694 70.131607093141
0.300000000000000 0.3243246716897 65.161123387277 0.6617688510876 -54.87072925427 0.6633548265992 -54.73870905351
                  0.6617688510876 -54.87072925427 0.5515562535360 65.898129708470 0.4918382419939 -77.06543700046
                  0.6633548265992 -54.73870905351 0.4918382419939 -77.06543700046 0.5507948677253 66.252037882393
0.320000000000000 0.3252638456020 57.322460410665 0.6615994877979 -58.54502338501 0.6632322559764 -58.40640093326
                  0.6615994877979 -58.54502338501 0.5640250029178 62.309950730639 0.4781414738928 -81.16766872533
                  0.6632322559764 -58.40640093326 0.4781414738928 -81.16766872533 0.5630449037663 62.653321246225
0.340000000000000 0.3265852404994 49.469624112559 0.6613999977600 -62.22684714315 0.6630719943905 -62.08077148010
                  0.6613999977600 -62.22684714315 0.5756306567416 58.973887270061 0.4648828191966 -85.16149261455
                  0.6630719943905 -62.08077148010 0.4648828191966 -85.16149261455 0.5744337822796 59.304128314978
0.360000000000000 0.3282787671675 41.608849005025 0.6611396012493 -65.91510173141 0.6628448514653 -65.76113251540
                  0.6611396012493 -65.91510173141 0.5864281138646 55.860835778746 0.4520981498575 -89.05174887984
                  0.6628448514653 -65.76113251540 0.4520981498575 -89.05174887984 0.5850306625242 56.176712846512
0.380000000000000 0.3303313665092 33.747993778221 0.6607926329225 -69.60813780842 0.6625260320928 -69.44621098723
                  0.6607926329225 -69.60813780842 0.5964750042479 52.945178894294 0.4398125944113 -92.84316924547
                  0.6625260320928 -69.44621098723 0.4398125944113 -92.84316924547 0.5949031459997 53.246515218918
0.400000000000000 0.3327281359764 25.896061968035 0.6603395960095 -73.30395656814 0.6620963181685 -73.13432951409
                  0.6603395960095 -73.30395656814 0.6058290155268 50.204396510353 0.4280424382959 -96.54036296814
                  0.6620963181685 -73.13432951409 0.4280424382959 -96.54036296814 0.6041146722281 50.491811338142
0.420000000000000 0.3354527183637 18.062723466569 0.6597674409178 -77.00038639535 0.6615425230961 -76.82356873908
                  0.6597674409178 -77.00038639535 0.6145460604226 47.618695682368 0.4167967690477 -100.1478163999
                  0.6615425230961 -76.82356873908 0.4167967690477 -100.1478163999 0.6127230969915 47.893405536169
0.440000000000000 0.3384872733034 10.257879254875 0.6590693327800 -80.69522753514 0.6608574936821 -80.51190607287
                  0.6590693327798 -80.69522753516 0.6226790090440 45.170671437385 0.4060788503767 -103.6699043469
                  0.6608574936817 -80.51190607288 0.4060788503767 -103.6699043469 0.6207801684690 45.434363550322
0.460000000000000 0.3418123146930 2.4912864213226 0.6582441116372 -84.38636624564 0.6600398252134 -84.19733635358
                  0.6582441116372 -84.38636624564 0.6302768108462 42.845009293480 0.3958872104641 -107.1109082750
                  0.6600398252134 -84.19733635358 0.3958872104641 -107.1109082750 0.6283317267100 43.099774304227
0.480000000000000 0.3454066073907 -5.227761317421 0.6572955563233 -88.07186403688 0.6590933016305 -87.87798116280
                  0.6572955563233 -88.07186403688 0.6373839696389 40.628235705315 0.3862164548385 -110.4750299477
                  0.6590933016305 -87.87798116280 0.3862164548385 -110.4750299477 0.6354184428786 40.876520789740
0.500000000000000 0.3492471640000 -12.89071176941 0.6562314818803 -91.75002482555 0.6580259827600 -91.55218228277
                  0.6562314818803 -91.75002482555 0.6440404355678 38.508510253054 0.3770578849269 -113.7663855501
                  0.6580259827600 -91.55218228277 0.3770578849269 -113.7663855501 0.6420767757541 38.753042285851
0.520000000000000 0.3533092436040 -20.48999319910 0.6550627009106 -95.41943614753 0.6568489639790 -95.21856095258
                  0.6550627009106 -95.41943614753 0.6502819224902 36.475439388696 0.3684000711102 -116.9889742864
                  0.6568489639790 -95.21856095258 0.3684000711102 -116.9889742864 0.6483397221581 36.719090598136
0.540000000000000 0.3575662555009 -28.01919422071 0.6538019637989 -99.07897909192 0.6555750663279 -98.87602751031
                  0.6538019637989 -99.07897909192 0.6561404682095 34.519891570891 0.3602294995439 -120.1466342660
                  0.6555750663279 -98.87602751031 0.3602294995439 -120.1466342660 0.6542371007991 34.765507496002
0.560000000000000 0.3619896082264 -35.47316123585 0.6524630483732 -102.7278096669 0.6542178028222 -102.5237482560
                  0.6524630483732 -102.7278096669 0.6616449449130 32.633811175071 0.3525312845272 -123.2430086116
                  0.6542178028222 -102.5237482560 0.3525312845272 -123.2430086116 0.6597954695579 32.884051658741
0.580000000000000 0.3665486476680 -42.84801191385 0.6510601090316 -106.3653236995 0.6527907855831 -106.1610950001
                  0.6510601090316 -106.3653236995 0.6668213385193 30.810045378914 0.3452898394773 -126.2815353524
                  0.6527907855831 -106.1610950001 0.3452898394773 -126.2815353524 0.6650379889725 31.067279412057
0.600000000000000 0.3712107906941 -50.14108673064 0.6496072783065 -109.9911186202 0.6513074905593 -109.7876005303
                  0.6496072783065 -109.9911186202 0.6716928170487 29.042198562098 0.3384894135256 -129.2654581242
                  0.6513074905593 -109.7876005303 0.3384894135256 -129.2654581242 0.6699844552606 29.308461482933
0.620000000000000 0.3759418547916 -57.35086611241 0.6481184453850 -113.6049598078 0.6497811999372 -113.4029286849
                  0.6481184453850 -113.6049598078 0.6762797101074 27.324518031565 0.3321144747941 -132.1978469349
                  0.6497811999372 -113.4029286849 0.3321144747941 -132.1978469349 0.6746515235613 27.601515368450
0.640000000000000 0.3807065164647 -64.47687255159 0.6466071371501 -117.2067533605 0.6482249907309 -117.0068566798
                  0.6466071371501 -117.2067533605 0.6805995011526 25.651806054188 0.3261499728775 -135.0816205644
                  0.6482249907309 -117.0068566798 0.3261499728775 -135.0816205644 0.6790530309831 25.940942412620
0.660000000000000 0.3854688239145 -71.51956756770 0.6450864561127 -120.7965245073 0.6466517177384 -120.5992644558
                  0.6450864561127 -120.7965245073 0.6846668744150 24.019350835789 0.3205815215936 -137.9195672930
                  0.6466517177384 -120.5992644558 0.3205815215936 -137.9195672930 0.6832003307774 24.321767468514
0.680000000000000 0.3901927110397 -78.48024812593 0.6435690526243 -124.3744005583 0.6450739856927 -124.1801273488
                  0.6435690526243 -124.3744005583 0.6884938175102 22.422870586046 0.3153955304883 -140.7143638746
                  0.6450739856927 -124.1801273488 0.3153955304883 -140.7143638746 0.6871025927950 22.739482614727
0.700000000000000 0.3948424823645 -85.36094532191 0.6420671191946 -127.9405976832 0.6435041182888 -127.7495104645
                  0.6420671191946 -127.9405976832 0.6920897665059 20.858466947390 0.3105793000946 -143.4685935945
                  0.6435041182888 -127.7495104645 0.3105793000946 -143.4685935945 0.6907670611752 21.189996472849
0.720000000000000 0.3993832532169 -92.16432768227 0.6405923977784 -131.4954110961 0.6419541292668 -131.3075643308
                  0.6405923977784 -131.4954110961 0.6954617802244 19.322585541317 0.3061210881182 -146.1847640370
                  0.6419541292668 -131.3075643308 0.3061210881183 -146.1847640370 0.6941992768936 19.669589663038
0.740000000000000 0.4037828161883 -98.89345939471 0.6391558200609 -135.0393638516 0.6404353232920 -134.8546773595
                  0.6391558200609 -135.0393638516 0.6986153519680 17.811849951032 0.3020099152545 -148.8649996637
                  0.6404353232920 -134.8546773595 0.3020099152545 -148.8649996637 0.6974038965306 18.174743119520
0.760000000000000 0.4080094990931 -105.5518740671 0.6377680548640 -138.5729988096 0.6389588078900 -138.3912700469
                  0.6377680548640 -138.5729988096 0.7015535039325 16.323186099057 0.2982361194863 -151.5114360934
                  0.6389588078900 -138.3912700469 0.2982361194863 -151.5114360934 0.7003837549606 16.702259025441
0.780000000000000 0.4120316709742 -112.1436670691 0.6364398000923 -142.0967548544 0.6375357526318 -141.9176723689
                  0.6364398000923 -142.0967548544 0.7042767267951 14.853921114693 0.2947913785120 -154.1265410075
                  0.6375357526318 -141.9176723689 0.2947913785120 -154.1265410075 0.7031397627504 15.249356380299
0.800000000000000 0.4158199862282 -118.6732786407 0.6351813022394 -145.6111480113 0.6361768793892 -145.4343052325
                  0.6351813022394 -145.6111480113 0.7067841004294 13.401617364157 0.2916682925316 -156.7127789829
                  0.6361768793892 -145.4343052325 0.2916682925316 -156.7127789829 0.7056719764255 13.813500578432
0.820000000000000 0.4193475235317 -125.1454343792 0.6340023143318 -149.1167701226 0.6348923973250 -148.9416788623
                  0.6340023143318 -149.1167701226 0.7090735211572 11.964050248049 0.2888603629095 -159.2726237999
                  0.6348923973250 -148.9416788623 0.2888603629095 -159.2726237999 0.7079797604299 12.392377974633
0.840000000000000 0.4225898766805 -131.5650951764 0.6329120417140 -152.6142877665 0.6336919309920 -152.4403909736
                  0.6329120417140 -152.6142877665 0.7111419281339 10.539187601265 0.2863619624134 -161.8085690291
                  0.6336919309920 -152.4403909736 0.2863619624134 -161.8085690291 0.7100619414562 10.983872397164
0.860000000000000 0.4255252030538 -137.9374155041 0.6319190761529 -156.1044409042 0.6325844418688 -155.9311243514
                  0.6319190761529 -156.1044409042 0.7129855261775 9.1251702098169 0.2841682995077 -164.3231367270
                  0.6325844418688 -155.9311243514 0.2841682995077 -164.3231367270 0.7119169543482 9.5860431406605
0.880000000000000 0.4281342362092 -144.2677088101 0.6310313198643 -159.5880408006 0.6315781446409 -159.4146434936
                  0.6310313198643 -159.5880408006 0.7146000022999 7.7202930451815 0.2822753787949 -166.8188841387
                  0.6315781446409 -159.4146434936 0.2822753787949 -166.8188841387 0.7135429784854 8.1971040765704
0.900000000000000 0.4304002697760 -150.5614187538 0.6302559019305 -163.0659668411 0.6306804202892 -162.8917900342
                  0.6302559019305 -163.0659668411 0.7159807332024 6.3229868905700 0.2806799593219 -169.2984083573
                  0.6306804202892 -162.8917900342 0.2806799593219 -169.2984083573 0.7149380634984 6.8154035993816
0.920000000000000 0.4323091203219 -156.8240950559 0.6295990902144 -166.5391619540 0.6298977285881 -166.3634767386
                  0.6295990902144 -166.5391619540 0.7171229810432 4.9318000948421 0.2793795121414 -171.7643489308
                  0.6298977285881 -166.3634767386 0.2793795121414 -171.7643489308 0.7161002432265 5.4394051847585
0.940000000000000 0.4338490771703 -163.0613728360 0.6290662023158 -170.0086264369 0.6292355229808 -169.8306799358
                  0.6290662023158 -170.0086264369 0.7180220748441 3.5453802399901 0.2783721782692 -174.2193884391
                  0.6292355229808 -169.8306799358 0.2783721782692 -174.2193884391 0.7170276369247 4.0676683751144
0.960000000000000 0.4350108472167 -169.2789544421 0.6286615193661 -173.4754100839 0.6286981709992 -173.2944303426
                  0.6286615193661 -173.4754100839 0.7186735749764 2.1624555491611 0.2776567279988 -176.6662510912
                  0.6286981709992 -173.2944303426 0.2776567279988 -176.6662510912 0.7177185368143 2.6988300339672
0.980000000000000 0.4357875025905 -175.4825929223 0.6283882065372 -176.9406026025 0.6282888834454 -176.7558023107
                  0.6283882065372 -176.9406026025 0.7190734182602 0.7818158963081 0.2772325224190 -179.1076994246
                  0.6282888834454 -176.7558023107 0.2772325224190 -179.1076994246 0.7181714811304 1.3315857272896
1.000000000000000 0.4361744385352 178.32192357373 0.6282482440408 179.59467759787 0.6280096554423 179.78409838908
                  0.6282482440408 179.59467759787 0.7192180413399 -0.597706692642 0.2770994779030 178.45347077726
                  0.6280096554423 179.78409838908 0.2770994779030 178.45347077726 0.7183853118586 -0.035328898500
1.020000000000000 0.4361693481242 172.12878706875 0.6282423721018 176.12929608090 0.6278612221890 176.32414806131
                  0.6282423721018 176.12929608090 0.7191044801902 -1.977258132988 0.2772580342588 176.01443718707
                  0.6278612221890 176.32414806131 0.2772580342588 176.01443718707 0.7183592163953 -1.403156864041
1.040000000000000 0.4357722194085 165.93218526025 0.6283700528907 172.66211628909 0.6278430317999 172.86321961806
                  0.6283700528907 172.66211628909 0.7187304438859 -3.357983035131 0.2777091271210 173.57235904557
                  0.6278430317999 172.86321961806 0.2777091271210 173.57235904557 0.7180927524396 -2.773138846201
1.060000000000000 0.4349853592576 159.72631784640 0.6286294516704 169.19201439615 0.6279532369483 169.40019786919
                  0.6286294516704 169.19201439615 0.7180943611654 -4.741046170592 0.2784541649833 171.12438641452
                  0.6279532369483 169.40019786919 0.2784541649833 171.12438641452 0.7175858555641 -4.146532520811
1.080000000000000 0.4338134462917 153.50541443994 0.6290174384163 165.71789479268 0.6281887061434 165.93399527097
                  0.6290174384163 165.71789479268 0.7171953988265 -6.127654690111 0.2794950110049 168.66767023514
                  0.6281887061434 165.93399527097 0.2794950110049 168.66767023514 0.7168388291273 -5.524632366831
1.100000000000000 0.4322636124021 147.26375516250 0.6295296098646 162.23870587312 0.6285450542973 162.46356782727
                  0.6295296098646 162.23870587312 0.7160334516104 -7.519081121016 0.2808339693819 166.19937276742
                  0.6285450542973 162.46356782727 0.2808339693819 166.19937276742 0.7158523164843 -6.908790031667
1.120000000000000 0.4303455473853 140.99569545862 0.6301603303429 158.75345576218 0.6290166907828 158.98793081945
                  0.6301603303429 158.75345576218 0.7146091038582 -8.916687147303 0.2824737757629 163.71667785815
                  0.6290166907828 158.98793081945 0.2824737757629 163.71667785815 0.7146272557492 -8.300435336579
1.140000000000000 0.4280716128912 134.69569703222 0.6309027880510 155.26122753392 0.6295968816252 155.50617397305
                  0.6309027880510 155.26122753392 0.7129235636386 -10.32194812934 0.2844175911689 161.21680030514
                  0.6295968816252 155.50617397305 0.2844175911689 161.21680030514 0.7131648174625 -9.701097956869
1.160000000000000 0.4254569398821 128.35836656953 0.6317490624357 151.76119329135 0.6302778214922 152.01747549971
                  0.6317490624357 151.76119329135 0.7109785698222 -11.73647824802 0.2866689996099 158.69699338742
                  0.6302778214922 152.01747549971 0.2866689996099 158.69699338742 0.7114663250234 -11.11242974241
1.180000000000000 0.4225194719240 121.97850225962 0.6326901994530 148.25262619624 0.6310507121966 148.52111418790
                  0.6326901994530 148.25262619624 0.7087762711334 -13.16205609496 0.2892320115730 156.15455355847
                  0.6310507121966 148.52111418790 0.2892320115730 156.15455355847 0.7095331561449 -12.53622758323
1.200000000000000 0.4192799162379 115.55114456885 0.6337162965408 144.73490934401 0.6319058491985 145.01647851481
                  0.6337162965408 144.73490934401 0.7063190734743 -14.60065057346 0.2921110785440 153.58682163071
                  0.6319058491985 145.01647851481 0.2921110785440 153.58682163071 0.7073666207952 -13.97445676510
1.220000000000000 0.4157615911607 109.07162357543 0.6348166074970 141.20754064746 0.6328327257063 141.50307198630
                  0.6348166074970 141.20754064746 0.7036094491827 -16.05444724721 0.2953111256946 150.99118072623
                  0.6328327257063 141.50307198630 0.2953111256946 150.99118072623 0.7049678084921 -15.42927501801
1.240000000000000 0.4119902135915 102.53559443779 0.6359796833960 137.67013392970 0.6338201699175 137.98051488711
                  0.6359796833960 137.67013392970 0.7006497025795 -17.52587576175 0.2988376072647 148.36505250986
                  0.6338201699175 137.98051488711 0.2988376072647 148.36505250986 0.7023373984731 -16.90305791796
1.260000000000000 0.4079937177970 95.939059142687 0.6371935602018 134.12241784569 0.6348565260318 134.44854398590
                  0.6371935602018 134.12241784569 0.6974416924035 -19.01763935188 0.3026965805976 145.70589368428
                  0.6348565260318 134.44854398590 0.3026965805976 145.70589368428 0.6994754322673 -18.39842665191
1.280000000000000 0.4038021836275 89.278384163520 0.6384459853231 130.56423487966 0.6359298722764 130.90701235409
                  0.6384459853234 130.56423487960 0.6939865204296 -20.53274728484 0.3068947853112 143.01119350476
                  0.6359298722766 130.90701235404 0.3068947853112 143.01119350476 0.6963810564047 -19.91827898746
1.300000000000000 0.3994455682869 82.550331947406 0.6397247502466 126.99539276036 0.6370283438657 127.35574160595
                  0.6397247502466 126.99539276036 0.6902830686627 -22.07458498184 0.3114406551523 140.27860700441
                  0.6370283438657 127.35574160595 0.3114406551523 140.27860700441 0.6930511260839 -21.46585776471
1.320000000000000 0.3949553568179 75.752055452831 0.6410177227820 123.41578595268 0.6381401591247 123.79464420238
                  0.6410177227820 123.41578595268 0.6863286001083 -23.64690064987 0.3163436052035 137.50579275337
                  0.6381401591247 123.79464420238 0.3163436052035 137.50579275337 0.6894808555217 -23.04473728741
1.340000000000000 0.3903671387589 68.881192530614 0.6423129468581 119.82555888956 0.6392537150895 120.22388770097
                  0.6423129468581 119.82555888956 0.6821196604815 -25.25381741024 0.3216130170828 134.69027122942
                  0.6392537150895 120.22388770097 0.3216130170828 134.69027122942 0.6856647611762 -24.65883465286
1.360000000000000 0.3857184242979 61.935989769844 0.6435989246129 116.22496935013 0.6403578690922 116.64375929571
                  0.6435989246129 116.22496935013 0.6776506863660 -26.89991840339 0.3272591025913 131.82955194479
                  0.6403578690922 116.64375929571 0.3272591025913 131.82955194479 0.6815953273317 -26.31249396469
1.380000000000000 0.3810482224548 54.915406130955 0.6448647497018 112.61438301712 0.6414420753698 113.05466174494
                  0.6448647497018 112.61438301712 0.6729136221601 -28.59029295857 0.3332929058286 128.92110959597
                  0.6414420753698 113.05466174494 0.3332929058286 128.92110959597 0.6772626674023 -28.01053203359
1.400000000000000 0.3763964491856 47.819211260353 0.6461002271914 108.99426463327 0.6424965123148 109.45710607243
                  0.6461002271914 108.99426463327 0.6678975158593 -30.33058651130 0.3397262920794 125.96235524701
                  0.6424965123148 109.45710607243 0.3397262920794 125.96235524701 0.6726541573294 -29.75828794005
1.420000000000000 0.3718032121173 40.648070798901 0.6472959846850 105.36516642576 0.6435122053100 105.85170164741
                  0.6472959846850 105.36516642576 0.6625880965957 -32.12705553252 0.3465719153661 122.95060382471
                  0.6435122053100 105.85170164741 0.3465719153661 122.95060382471 0.6677540425664 -31.56167757536
1.440000000000000 0.3673080162116 33.403613572783 0.6484435741844 101.72771462557 0.6444811452784 102.23914438656
                  0.6484435741844 101.72771462557 0.6569673404577 -33.98662889630 0.3538431521244 119.88303897139
                  0.6444811452784 102.23914438656 0.3538431521244 119.88303897139 0.6625430235935 -33.42725441333
1.460000000000000 0.3629489251833 26.088476526894 0.6495355608657 98.082594806669 0.6453963999525 98.620203708928
                  0.6495355608657 98.082594806669 0.6510130340330 -35.91697729145 0.3615539852093 116.75667606872
                  0.6453963999525 98.620203708928 0.3615539852093 116.75667606872 0.6569978276918 -35.36227789454
1.480000000000000 0.3587617065881 18.706323096166 0.6505655938403 94.430536595233 0.6462522138461 94.995708689443
                  0.6505655938403 94.430536595233 0.6446983478828 -37.92659252443 0.3697188197617 113.56832417783
                  0.6462522138461 94.995708689443 0.3697188197617 113.56832417783 0.6510907773425 -37.37479099224
1.500000000000000 0.3547789870079 11.261830366742 0.6515284544011 90.772298161365 0.6470440933653 91.366533702897
                  0.6515284544011 90.772298161365 0.6379914356677 -40.02487890113 0.3783522095689 110.31454776190
                  0.6470440933653 91.366533702897 0.3783522095689 110.31454776190 0.6447893689585 -39.47370880500
1.520000000000000 0.3510294461339 3.7606406169894 0.6524200783979 87.108650833036 0.6477688745810 87.733583752377
                  0.6524200783979 87.108650833036 0.6308550797948 -42.22225932135 0.3874684690092 106.99162932910
                  0.6477688745810 87.733583752377 0.3874684690092 106.99162932910 0.6380558805624 -41.66892039066
1.540000000000000 0.3475370819301 -3.790725993472 0.6532375506696 83.440364152474 0.6484247723585 84.097779621487
                  0.6532375506696 83.440364152474 0.6232464120991 -44.53029927622 0.3970811413328 103.59553451987
                  0.6484247723585 84.097779621487 0.3970811413328 103.59553451987 0.6308470342924 -43.97140652041
1.560000000000000 0.3443205810582 -11.38499868398 0.6539790706726 79.768191705215 0.6490114105408 80.460042953266
                  0.6539790706726 79.768191705215 0.6151167491345 -46.96185261969 0.4072022890827 100.12188164829
                  0.6490114105408 80.460042953266 0.4072022890827 100.12188164829 0.6231137501169 -46.39337660088
1.580000000000000 0.3413928279072 -19.01432148696 0.6546438895316 76.092858074603 0.6495298336215 76.821281322865
                  0.6546438895316 76.092858074603 0.6064115972327 -49.53123381479 0.4178415672486 96.565918301319
                  0.6495298336215 76.821281322865 0.4178415672486 96.565918301319 0.6148010419050 -48.94842870873
1.600000000000000 0.3387605813076 -26.67045184344 0.6552322197676 72.415047299434 0.6499825007951 73.182373325939
                  0.6552322197676 72.415047299434 0.5970709039466 -52.25442237375 0.4290050349485 92.922508319793
                  0.6499825007951 73.182373325939 0.4290050349485 92.922508319793 0.6058481273103 -51.65173754195
1.620000000000000 0.3364243404387 -34.34498420793 0.6557451199938 68.735393235184 0.6503732634007 69.544153647731
                  0.6557451199938 68.735393235184 0.5870296614257 -55.14930645654 0.4406936580687 89.186133348431
                  0.6503732634007 69.544153647731 0.4406936580687 89.186133348431 0.5961888503060 -54.52027615936
1.640000000000000 0.3343784112213 -42.02958794928 0.6561843580008 65.054472236754 0.6507073265164 65.907398012222
                  0.6561843580008 65.054472236754 0.5762190054421 -58.23597409609 0.4529014550200 85.350914152939
                  0.6507073265164 65.907398012222 0.4529014550200 85.350914152939 0.5857525513291 -57.57307869823
1.660000000000000 0.3326111727339 -49.71624726032 0.6565522569661 61.372798589194 0.6509911947444 62.272807844608
                  0.6565522569661 61.372798589194 0.5645680028771 -61.53706224917 0.4656132430049 81.410658037807
                  0.6509911947444 62.272807844608 0.4656132430049 81.410658037807 0.5744655664668 -60.83155284394
1.680000000000000 0.3311055312338 -57.39749046443 0.6568515311056 57.690823104722 0.6512326009470 58.640994428191
                  0.6568515311056 57.690823104722 0.5520063816557 -65.07817565621 0.4788019564028 77.358939888344
                  0.6512326009470 58.640994428191 0.4788019564028 77.358939888344 0.5622535950769 -64.31985259997
1.700000000000000 0.3298395385820 -65.06659708437 0.6570851190280 54.008935265670 0.6514404148066 55.012462319938
                  0.6570851190280 54.008935265670 0.5384685301731 -68.88838880759 0.4924255366721 73.189225461629
                  0.6514404148066 55.012462319938 0.4924255366721 73.189225461629 0.5490452445362 -68.06532356384
1.720000000000000 0.3287871434381 -72.71777315652 0.6572560253822 50.327469201250 0.6516245255811 51.387591837361
                  0.6572560253822 50.327469201250 0.5238991751691 -73.00084389011 0.5064234401805 68.895046312673
                  0.6516245255811 51.387591837361 0.5064234401805 68.895046312673 0.5347771387819 -72.09903362570
1.740000000000000 0.3279190382978 -80.34628819173 0.6573671840389 46.646713608607 0.6517956904691 47.766620581489
                  0.6573671840389 46.646713608607 0.5082612295101 -77.45345261716 0.5207128826641 64.470235771527
                  0.6517956904691 47.766620581489 0.5207128826641 64.470235771527 0.5194010566404 -76.45639982508
1.760000000000000 0.3272035635998 -87.94857046176 0.6574213587253 42.966925424699 0.6519653369540 44.149624260357
                  0.6574213587253 42.966925424699 0.4915463668494 -82.28969448492 0.5351850415893 59.909234122953
                  0.6519653369540 44.149624260357 0.5351850415893 59.909234122953 0.5028936313884 -81.17791282739
1.780000000000000 0.3266076315411 -95.52226048024 0.6574210991286 39.288346583400 0.6521453051066 40.536497564911
                  0.6574210991286 39.288346583400 0.4737888949978 -87.55946668725 0.5497015717408 55.207467860139
                  0.6521453051066 40.536497564911 0.5497015717408 55.207467860139 0.4852691662163 -86.30993555277
1.800000000000000 0.3260976363334 -103.0662252735 0.6573687709240 35.611222525709 0.6523475152469 36.926936543284
                  0.6573687709240 35.611222525709 0.4550834026207 -93.31986002984 0.5640919479745 50.361801777473
                  0.6523475152469 36.926936543284 0.5640919479745 50.361801777473 0.4665960513302 -91.90549539448