! Sonnet Data File
! From: em Version : 18.53-Lite
! From Project: MS_Line
! Data is De-embedded 
! Data File Written: 07/03/2025 19:22:53
!< HDATE 07/03/2025 19:22:48
!< MDATE 07/03/2025 19:22:48
!< PARAMS
!< L1 = 20.0
!< W1 = 1.1
!< END PARAMS
# GHZ S MA R 50.00000
0.100000000000000 0.0050089165131 82.926214030107 0.9995535286347 -4.000674335533 0.9995535286346 -4.000674335533 0.0050089165131 82.926214031282
0.120000000000000 0.0059680323244 82.502820115383 0.9995024307210 -4.798589970673 0.9995024307210 -4.798589970673 0.0059676813489 82.500310434967
0.140000000000000 0.0069240476455 81.979593708120 0.9994510741146 -5.596383815480 0.9994510741146 -5.596383815480 0.0069234307864 81.976147266540
0.160000000000000 0.0078768609900 81.393840236021 0.9993995354430 -6.394063374107 0.9993995354430 -6.394063374107 0.0078760593029 81.390274515418
0.180000000000000 0.0088263988211 80.766487223772 0.9993478759154 -7.191636016027 0.9993478759154 -7.191636016027 0.0088254868204 80.763217325215
0.200000000000000 0.0097725997968 80.110138395899 0.9992961423617 -7.989108889988 0.9992961423617 -7.989108889988 0.0097716439294 80.107353812227
0.220000000000000 0.0107154067451 79.432804354481 0.9992443684056 -8.786488849277 0.9992443684056 -8.786488849277 0.0107144644996 79.430565080427
0.240000000000000 0.0116547620535 78.739795194279 0.9991925757390 -9.583782388836 0.9991925757390 -9.583782388836 0.0116538815368 78.738087215411
0.260000000000000 0.0125906047811 78.034751516447 0.9991407754643 -10.38099559445 0.9991407754643 -10.38099559445 0.0125898246626 78.033520237389
0.280000000000000 0.0135228687552 77.320239229728 0.9990889694710 -11.17813410388 0.9990889694710 -11.17813410388 0.0135222185054 77.319410168296
0.300000000000000 0.0144514813004 76.598109260869 0.9990371518179 -11.97520307966 0.9990371518179 -11.97520307966 0.0144509816637 76.597601017519
0.320000000000000 0.0153763624133 75.869723818791 0.9989853100912 -12.77220719273 0.9989853100912 -12.77220719273 0.0153760260630 75.869456168039
0.340000000000000 0.0162974242771 75.136103513661 0.9989334267157 -13.56915061643 0.9989334267157 -13.56915061643 0.0162972566055 75.136002317035
0.360000000000000 0.0172145710476 74.398025733464 0.9988814801958 -14.36603702955 0.9988814801959 -14.36603702955 0.0172145710476 74.398025733627
0.380000000000000 0.0181276988480 73.656092034568 0.9988294462800 -15.16286962705 0.9988294462800 -15.16286962705 0.0181278600481 73.656138217076
0.400000000000000 0.0190366959708 72.910775176497 0.9987772990078 -15.95965113907 0.9987772990078 -15.95965113907 0.0190370073893 72.910823160650
0.420000000000000 0.0199414431895 72.162452608372 0.9987250116750 -16.75638385373 0.9987250116750 -16.75638385373 0.0199418902783 72.162468383781
0.440000000000000 0.0208418142132 71.411430550903 0.9986725576674 -17.55306964606 0.9986725576674 -17.55306964606 0.0208423797675 71.411389785484
0.460000000000000 0.0217376762201 70.657961563728 0.9986199111880 -18.34971000957 0.9986199111880 -18.34971000957 0.0217383412322 70.657848644366
0.480000000000000 0.0226288904565 69.902257459941 0.9985670478688 -19.14630609045 0.9985670478688 -19.14630609045 0.0226296348998 69.902064383534
0.500000000000000 0.0235153128792 69.144498867142 0.9985139452716 -19.94285872307 0.9985139452716 -19.94285872307 0.0235161164105 69.144224067846
0.520000000000000 0.0243967948207 68.384842340367 0.9984605832849 -20.73936846588 0.9984605832849 -20.73936846588 0.0243976373937 68.384489515493
0.540000000000000 0.0252731836614 67.623425670463 0.9984069444218 -21.53583563722 0.9984069444218 -21.53583563722 0.0252740460473 67.623002649644
0.560000000000000 0.0261443234926 66.860371852116 0.9983530140285 -22.33226034998 0.9983530140285 -22.33226034998 0.0261451877082 66.859889540849
0.580000000000000 0.0270100557606 66.095792050990 0.9982987804130 -23.12864254495 0.9982987804130 -23.12864254495 0.0270109054046 66.095263469016
0.600000000000000 0.0278702198804 65.329787820882 0.9982442349012 -23.92498202224 0.9982442349012 -23.92498202224 0.0278710403832 65.329227247734
0.620000000000000 0.0287246538126 64.562452758269 0.9981893718334 -24.72127847042 0.9981893718334 -24.72127847042 0.0287254326046 64.561874991860
0.640000000000000 0.0295731945976 63.793873735131 0.9981341885077 -25.51753149332 0.9981341885077 -25.51753149332 0.0295739212043 63.793293464352
0.660000000000000 0.0304156788442 63.024131816562 0.9980786850817 -26.31374063424 0.9980786850817 -26.31374063424 0.0304163449147 63.023563105160
0.680000000000000 0.0312519431698 62.253302944163 0.9980228644400 -27.10990539756 0.9980228644400 -27.10990539756 0.0312525424490 62.252758820335
0.700000000000000 0.0320818245932 61.481458446608 0.9979667320356 -27.90602526772 0.9979667320356 -27.90602526772 0.0320823528440 61.480950590876
0.720000000000000 0.0329051608781 60.708665424183 0.9979102957134 -28.70209972573 0.9979102957134 -28.70209972573 0.0329056157651 60.708203946744
0.740000000000000 0.0337217908324 59.934987042657 0.9978535655201 -29.49812826318 0.9978535655201 -29.49812826318 0.0337221717733 59.934580340679
0.760000000000000 0.0345315545622 59.160482763203 0.9977965535091 -30.29411039406 0.9977965535091 -30.29411039406 0.0345318625554 59.160137448162
0.780000000000000 0.0353342936856 58.385208528281 0.9977392735425 -31.09004566443 0.9977392735425 -31.09004566443 0.0353345311224 58.384929413482
0.800000000000000 0.0361298515089 57.609216918229 0.9976817410958 -31.88593366011 0.9976817410958 -31.88593366011 0.0361300219750 57.609007056904
0.820000000000000 0.0369180731691 56.832557289318 0.9976239730675 -32.68177401277 0.9976239730675 -32.68177401277 0.0369181812430 56.832418054116
0.840000000000000 0.0376988057452 56.055275900834 0.9975659875978 -33.47756640433 0.9975659875978 -33.47756640433 0.0376988567976 56.055207096236
0.860000000000000 0.0384718983462 55.277416031750 0.9975078038925 -34.27331057031 0.9975078038925 -34.27331057031 0.0384718983461 55.277416031555
0.880000000000000 0.0392372021593 54.499018123684 0.9974494420794 -35.06900630090 0.9974494420794 -35.06900630090 0.0392371574848 54.499084026386
0.900000000000000 0.0399945705192 53.720119852528 0.9973909230269 -35.86465344370 0.9973909230269 -35.86465344370 0.0399944877896 53.720247648674
0.920000000000000 0.0407438589065 52.940756296115 0.9973322682411 -36.66025190215 0.9973322682411 -36.66025190215 0.0407437448194 52.940941041678
0.940000000000000 0.0414849249728 52.160960032116 0.9972734997264 -37.45580163585 0.9972734997264 -37.45580163585 0.0414847861624 52.161196023534
0.960000000000000 0.0422176285396 51.380761265809 0.9972146398794 -38.25130265942 0.9972146398794 -38.25130265942 0.0422174714498 51.381042212587
0.980000000000000 0.0429418315907 50.600187954076 0.9971557113904 -39.04675504101 0.9971557113904 -39.04675504101 0.0429416623669 50.600507145678
1.000000000000000 0.0436573982581 49.819265929754 0.9970967371578 -39.84215890058 0.9970967371578 -39.84215890058 0.0436572226559 49.819616394165
1.020000000000000 0.0443641948047 49.038019025589 0.9970377402130 -40.63751440797 0.9970377402130 -40.63751440797 0.0443640181158 49.038393677475
1.040000000000000 0.0450620896029 48.256469197059 0.9969787436557 -41.43282178079 0.9969787436557 -41.43282178079 0.0450619165983 48.256860973995
1.060000000000000 0.0457509531129 47.474636643261 0.9969197705986 -42.22808128234 0.9969197705986 -42.22808128234 0.0457507880011 47.475038628953
1.080000000000000 0.0464306578598 46.692539925181 0.9968608441202 -43.02329321945 0.9968608441202 -43.02329321945 0.0464305042610 46.692945459027
1.100000000000000 0.0471010784129 45.910196080685 0.9968019872258 -43.81845794040 0.9968019872258 -43.81845794040 0.0471009393453 45.910598853345
1.120000000000000 0.0477620913645 45.127620735681 0.9967432228148 -44.61357583294 0.9967432228148 -44.61357583294 0.0477619692447 45.128014870638
1.140000000000000 0.0484135753128 44.344828210976 0.9966845736537 -45.40864732237 0.9966845736537 -45.40864732237 0.0484134719658 44.345208332328
1.160000000000000 0.0490554108458 43.561831624443 0.9966260623544 -46.20367286976 0.9966260623544 -46.20367286976 0.0490553275257 43.562192911342
1.180000000000000 0.0496874805290 42.778642988236 0.9965677113567 -46.99865297034 0.9965677113567 -46.99865297034 0.0496874179472 42.778981216575
1.200000000000000 0.0503096688951 41.995273300812 0.9965095429145 -47.79358815203 0.9965095429145 -47.79358815203 0.0503096272560 41.995584872875
1.220000000000000 0.0509218624377 41.211732633685 0.9964515790843 -48.58847897405 0.9964515790843 -48.58847897405 0.0509218414800 41.212014596570
1.240000000000000 0.0515239496075 40.428030212812 0.9963938417168 -49.38332602577 0.9963938417168 -49.38332602577 0.0515239486495 40.428280266513
1.260000000000000 0.0521158208119 39.644174494650 0.9963363524496 -50.17812992567 0.9963363524496 -50.17812992567 0.0521158388001 39.644390990702
1.280000000000000 0.0526973684168 38.860173236949 0.9962791327018 -50.97289132041 0.9962791327018 -50.97289132041 0.0526974039771 38.860355168581
1.300000000000000 0.0532684867519 38.076033564369 0.9962222036692 -51.76761088407 0.9962222036692 -51.76761088407 0.0532685382413 38.076180549107
1.320000000000000 0.0538290721180 37.291762029101 0.9961655863199 -52.56228931750 0.9961655863199 -52.56228931750 0.0538291376768 37.291874284741
1.340000000000000 0.0543790227969 36.507364666643 0.9961093013906 -53.35692734773 0.9961093013906 -53.35692734773 0.0543791004004 36.507442981504
1.360000000000000 0.0549182390634 35.722847046952 0.9960533693825 -54.15152572756 0.9960533693825 -54.15152572756 0.0549183265718 35.722892745274
1.380000000000000 0.0554466231990 34.938214321188 0.9959978105572 -54.94608523517 0.9959978105572 -54.94608523517 0.0554467184057 34.938229224509
1.400000000000000 0.0559640795072 34.153471264291 0.9959426449325 -55.74060667379 0.9959426449325 -55.74060667379 0.0559641801845 34.153457649580
1.420000000000000 0.0564705143305 33.368622313619 0.9958878922769 -56.53509087154 0.9958878922769 -56.53509087154 0.0564706182722 33.368582868897
1.440000000000000 0.0569658360680 32.583671603904 0.9958335721046 -57.32953868117 0.9958335721046 -57.32953868117 0.0569659411290 32.583609382045
1.460000000000000 0.0574499551948 31.798622998786 0.9957797036687 -58.12395097995 0.9957797036687 -58.12395097995 0.0574500593269 31.798541370099
1.480000000000000 0.0579227842812 31.013480119135 0.9957263059547 -58.91832866952 0.9957263059547 -58.91832866952 0.0579228855646 31.013382723326
1.500000000000000 0.0583842380129 30.228246368431 0.9956733976727 -59.71267267582 0.9956733976727 -59.71267267582 0.0583843346847 30.228137066441
1.520000000000000 0.0588342332118 29.442924955433 0.9956209972488 -60.50698394899 0.9956209972488 -60.50698394899 0.0588343236896 29.442807781624
1.540000000000000 0.0592726888561 28.657518914331 0.9955691228164 -61.30126346327 0.9955691228164 -61.30126346327 0.0592727717577 28.657398029438
1.560000000000000 0.0596995261014 27.872031122645 0.9955177922060 -62.09551221690 0.9955177922060 -62.09551221690 0.0596996002610 27.871910767844
1.580000000000000 0.0601146683011 27.086464317026 0.9954670229353 -62.88973123204 0.9954670229353 -62.88973123204 0.0601147327806 27.086348769459
1.600000000000000 0.0605180410265 26.300821107192 0.9954168321974 -63.68392155461 0.9954168321974 -63.68392155461 0.0605180951237 26.300714637191
1.620000000000000 0.0609095720869 25.515103988157 0.9953672368500 -64.47808425419 0.9953672368500 -64.47808425419 0.0609096153394 25.515010818428
1.640000000000000 0.0612891915489 24.729315350932 0.9953182534028 -65.27222042378 0.9953182534028 -65.27222042378 0.0612892237347 24.729239617877
1.660000000000000 0.0616568317552 23.943457491863 0.9952698980051 -66.06633117968 0.9952698980051 -66.06633117968 0.0616568528901 23.943403209201
1.680000000000000 0.0620124273427 23.157532620743 0.9952221864331 -66.86041766114 0.9952221864331 -66.86041766114 0.0620124376741 23.157503645551
1.700000000000000 0.0623559152620 22.371542863127 0.9951751340712 -67.65448103032 0.9951751340710 -67.65448103033 0.0623559152620 22.371542863227
1.720000000000000 0.0626872347848 21.585490290013 0.9951287559265 -68.44852247125 0.9951287559265 -68.44852247125 0.0626872251321 21.585522719844
1.740000000000000 0.0630063275383 20.799376875864 0.9950830665590 -69.24254319082 0.9950830665590 -69.24254319082 0.0630063091137 20.799444943175
1.760000000000000 0.0633131375017 20.013204550330 0.9950380801246 -70.03654441703 0.9950380801246 -70.03654441703 0.0633131113659 20.013311197332
1.780000000000000 0.0636076110297 19.226975178507 0.9949938103329 -70.83052739925 0.9949938103329 -70.83052739925 0.0636075784068 19.227123059773
1.800000000000000 0.0638896968637 18.440690568983 0.9949502704395 -71.62449340758 0.9949502704395 -71.62449340758 0.0638896591220 18.440882033158
1.820000000000000 0.0641593461448 17.654352476694 0.9949074732325 -72.41844373233 0.9949074732325 -72.41844373233 0.0641593047756 17.654589550812
1.840000000000000 0.0644165124245 16.867962605385 0.9948654310188 -73.21237968343 0.9948654310188 -73.21237968343 0.0644164690205 16.868246981733
1.860000000000000 0.0646611516760 16.081522609744 0.9948241556116 -74.00630258985 0.9948241556116 -74.00630258985 0.0646611079081 16.081855635226
1.880000000000000 0.0648932223032 15.295034097267 0.9947836583169 -74.80021379895 0.9947836583169 -74.80021379895 0.0648931798978 15.295416765203
1.900000000000000 0.0651126851503 14.508498629904 0.9947439499211 -75.59411467574 0.9947439499211 -75.59411467574 0.0651126458652 14.508931574175
1.920000000000000 0.0653195035088 13.721917725540 0.9947050406790 -76.38800660222 0.9947050406790 -76.38800660222 0.0653194691096 13.722401217003
1.940000000000000 0.0655136431251 12.935292859339 0.9946669403017 -77.18189097655 0.9946669403017 -77.18189097655 0.0655136153619 12.935826804426
1.960000000000000 0.0656950722067 12.148625465006 0.9946296579454 -77.97576921229 0.9946296579454 -77.97576921229 0.0656950527905 12.149209406407
1.980000000000000 0.0658637614271 11.361916935985 0.9945932022004 -78.76964273754 0.9945932022004 -78.76964273754 0.0658637520073 11.362550055319
2.000000000000000 0.0660196839309 10.575168626628 0.9945575810805 -79.56351299407 0.9945575810805 -79.56351299407 0.0660196860734 10.575849749009
2.020000000000000 0.0661628153371 9.7883818533615 0.9945228020137 -80.35738143644 0.9945228020137 -80.35738143644 0.0661628305030 9.7891094537446
2.040000000000000 0.0662931337423 9.0015578958663 0.9944888718320 -81.15124953106 0.9944888718320 -81.15124953106 0.0662931632681 9.0023301070851
2.060000000000000 0.0664106197230 8.2146979982975 0.9944557967634 -81.94511875522 0.9944557967634 -81.94511875522 0.0664106648016 8.2155126206811
2.080000000000000 0.0665152563370 7.4278033705565 0.9944235824234 -82.73899059614 0.9944235824234 -82.73899059614 0.0665153180005 7.4286578830270
2.100000000000000 0.0666070291242 6.6408751896275 0.9943922338074 -83.53286654995 0.9943922338074 -83.53286654995 0.0666071082276 6.6417667621738
2.120000000000000 0.0666859261072 5.8539146009983 0.9943617552841 -84.32674812066 0.9943617552841 -84.32674812066 0.0666860233139 5.8548401084293
2.140000000000000 0.0667519377902 5.0669227201643 0.9943321505891 -85.12063681913 0.9943321505891 -85.12063681913 0.0667520535594 5.0678787570408
2.160000000000000 0.0668050571587 4.2799006342393 0.9943034228190 -85.91453416202 0.9943034228190 -85.91453416202 0.0668051917340 4.2808835308870
2.180000000000000 0.0668452796772 3.4928494036669 0.9942755744271 -86.70844167067 0.9942755744271 -86.70844167067 0.0668454330773 3.4938552431759
2.200000000000000 0.0668726032874 2.7057700640452 0.9942486072186 -87.50236087008 0.9942486072186 -87.50236087008 0.0668727752987 2.7067947001667
2.220000000000000 0.0668870284051 1.9186636280744 0.9942225223474 -88.29629328775 0.9942225223474 -88.29629328775 0.0668872185761 1.9197027039227
2.240000000000000 0.0668885579175 1.1315310876219 0.9941973203129 -89.09024045262 0.9941973203129 -89.09024045262 0.0668887655548 1.1325800550957
2.260000000000000 0.0668771971788 0.3443734159213 0.9941730009581 -89.88420389391 0.9941730009581 -89.88420389391 0.0668774213454 0.3454275557614
2.280000000000000 0.0668529540065 -0.442808430106 0.9941495634678 -90.67818514004 0.9941495634678 -90.67818514004 0.0668531935219 -0.441753987703
2.300000000000000 0.0668158386762 -1.230013507387 0.9941270063680 -91.47218571748 0.9941270063680 -91.47218571748 0.0668160921184 -1.228963761674
2.320000000000000 0.0667658639171 -2.017240884095 0.9941053275257 -92.26620714962 0.9941053275257 -92.26620714962 0.0667661296263 -2.016200942284
2.340000000000000 0.0667030449059 -2.804489636920 0.9940845241493 -93.06025095565 0.9940845241493 -93.06025095565 0.0667033209903 -2.803464692342
2.360000000000000 0.0666273992611 -3.591758848177 0.9940645927899 -93.85431864946 0.9940645927899 -93.85431864946 0.0666276836047 -3.590754158192
2.380000000000000 0.0665389470366 -4.379047602782 0.9940455293431 -94.64841173844 0.9940455293431 -94.64841173844 0.0665392373082 -4.378068466477
2.400000000000000 0.0664377107150 -5.166354985072 0.9940273290516 -95.44253172245 0.9940273290516 -95.44253172245 0.0664380043797 -5.165406720825
2.420000000000000 0.0663237152007 -5.953680075474 0.9940099865083 -96.23668009263 0.9940099865083 -96.23668009263 0.0663240095322 -5.952767998428
2.440000000000000 0.0661969878121 -6.741021947015 0.9939934956603 -97.03085833034 0.9939934956603 -97.03085833034 0.0661972799073 -6.740151346532
2.460000000000000 0.0660575582742 -7.528379661669 0.9939778498130 -97.82506790604 0.9939778498130 -97.82506790604 0.0660578450692 -7.527555778807
2.480000000000000 0.0659054587105 -8.315752266538 0.9939630416356 -98.61931027819 0.9939630416356 -98.61931027819 0.0659057369975 -8.314980271604
2.500000000000000 0.0657407236344 -9.103138789870 0.9939490631664 -99.41358689221 0.9939490631664 -99.41358689221 0.0657409900808 -9.102423760085
2.520000000000000 0.0655633899405 -9.890538236877 0.9939359058193 -100.2078991794 0.9939359058193 -100.2078991794 0.0655636411087 -9.889885134220
2.540000000000000 0.0653734968958 -10.67794958539 0.9939235603908 -101.0022485557 0.9939235603908 -101.0022485557 0.0653737292644 -10.67736323463
2.560000000000000 0.0651710861303 -11.46537178130 0.9939120170672 -101.7966364211 0.9939120170672 -101.7966364211 0.0651712961160 -11.46485684829
2.580000000000000 0.0649562016273 -12.25280373382 0.9939012654326 -102.5910641582 0.9939012654326 -102.5910641582 0.0649563856085 -12.25236470406
2.600000000000000 0.0647288897139 -13.04024431049 0.9938912944779 -103.3855331312 0.9938912944779 -103.3855331312 0.0647290440541 -13.03988546799
2.620000000000000 0.0644891990502 -13.82769233201 0.9938820926094 -104.1800446854 0.9938820926094 -104.1800446854 0.0644893201233 -13.82741773854
2.640000000000000 0.0642371806194 -14.61514656681 0.9938736476587 -104.9746001454 0.9938736476587 -104.9746001454 0.0642372648348 -14.61496004145
2.660000000000000 0.0639728877172 -15.40260572534 0.9938659468929 -105.7692008151 0.9938659468929 -105.7692008151 0.0639729315454 -15.40251082451
2.680000000000000 0.0636963759408 -16.19006845954 0.9938589770181 -106.5638479760 0.9938589770182 -106.5638479760 0.0636963759409 -16.19006845953
2.700000000000000 0.0634077031752 -16.97753332955 0.9938527242258 -107.3585428866 0.9938527242258 -107.3585428866 0.0634076560177 -16.97763119888
2.720000000000000 0.0631069295875 -17.76499885128 0.9938471741338 -108.1532867817 0.9938471741338 -108.1532867817 0.0631068320861 -17.76519724476
2.740000000000000 0.0627941176090 -18.55246343538 0.9938423118691 -108.9480808711 0.9938423118691 -108.9480808711 0.0627939667440 -18.55276466748
2.760000000000000 0.0624693319265 -19.33992540711 0.9938381220450 -109.7429263392 0.9938381220450 -109.7429263392 0.0624691248719 -19.34033143634
2.780000000000000 0.0621326394689 -20.12738299328 0.9938345887808 -110.5378243437 0.9938345887808 -110.5378243437 0.0621323736189 -20.12789540507
2.800000000000000 0.0617841093950 -20.91483431427 0.9938316957154 -111.3327760153 0.9938316957154 -111.3327760153 0.0617837823897 -20.91545430431
2.820000000000000 0.0614238130803 -21.70227737548 0.9938294260210 -112.1277824566 0.9938294260210 -112.1277824566 0.0614234228313 -21.70300573366
2.840000000000000 0.0610518241042 -22.48971005847 0.9938277624169 -112.9228447415 0.9938277624169 -112.9228447415 0.0610513688195 -22.49054715332
2.860000000000000 0.0606682182362 -23.27713011141 0.9938266871841 -113.7179639146 0.9938266871841 -113.7179639146 0.0606676964440 -23.27807587515
2.880000000000000 0.0602730734225 -24.06453513908 0.9938261821801 -114.5131409901 0.9938261821801 -114.5131409901 0.0602724839948 -24.06558905324
2.900000000000000 0.0598664697717 -24.85192259221 0.9938262288540 -115.3083769515 0.9938262288540 -115.3083769515 0.0598658119463 -24.85308367377
2.920000000000000 0.0594484895409 -25.63928975609 0.9938268082615 -116.1036727510 0.9938268082615 -116.1036727510 0.0594477629427 -25.64055654432
2.940000000000000 0.0590192171207 -26.42663373861 0.9938279010811 -116.8990293087 0.9938279010811 -116.8990293087 0.0590184217816 -26.42800428236
2.960000000000000 0.0585787390206 -27.21395145728 0.9938294876299 -117.6944475119 0.9938294876299 -117.6944475119 0.0585778753984 -27.21542330297
2.980000000000000 0.0581271438538 -28.00123962556 0.9938315478797 -118.4899282151 0.9938315478797 -118.4899282151 0.0581262128490 -28.00280980574
3.000000000000000 0.0576645223217 -28.78849473814 0.9938340614734 -119.2854722388 0.9938340614734 -119.2854722388 0.0576635252936 -28.79015976059
3.020000000000000 0.0571909671979 -29.57571305516 0.9938370077418 -120.0810803695 0.9938370077418 -120.0810803695 0.0571899059785 -29.57746889270
3.040000000000000 0.0567065733127 -30.36289058536 0.9938403657208 -120.8767533591 0.9938403657208 -120.8767533591 0.0567054502188 -30.36473266612
3.060000000000000 0.0562114375358 -31.15002306785 0.9938441141677 -121.6724919245 0.9938441141677 -121.6724919245 0.0562102553800 -31.15194626626
3.080000000000000 0.0557056587606 -31.93710595258 0.9938482315791 -122.4682967471 0.9938482315791 -122.4682967471 0.0557044208591 -31.93910458087
3.100000000000000 0.0551893378861 -32.72413437925 0.9938526962083 -123.2641684723 0.9938526962083 -123.2641684723 0.0551880480660 -32.72620217955
3.120000000000000 0.0546625778006 -33.51110315447 0.9938574860823 -124.0601077097 0.9938574860823 -124.0601077097 0.0546612404035 -33.51323329154
3.140000000000000 0.0541254833630 -34.29800672716 0.9938625790203 -124.8561150323 0.9938625790203 -124.8561150323 0.0541241032479 -34.30019178164
3.160000000000000 0.0535781613855 -35.08483916180 0.9938679526506 -125.6521909763 0.9938679526506 -125.6521909763 0.0535767439284 -35.08707112410
3.180000000000000 0.0530207206147 -35.87159410944 0.9938735844293 -126.4483360411 0.9938735844293 -126.4483360411 0.0530192717062 -35.87386437410
3.200000000000000 0.0524532717134 -36.65826477614 0.9938794516577 -127.2445506888 0.9938794516577 -127.2445506888 0.0524517977539 -36.66056413687
3.220000000000000 0.0518759272411 -37.44484388867 0.9938855315006 -128.0408353442 0.9938855315006 -128.0408353442 0.0518744351334 -37.44716253384
3.240000000000000 0.0512888016348 -38.23132365701 0.9938918010041 -128.8371903946 0.9938918010041 -128.8371903946 0.0512872987745 -38.23365116571
3.260000000000000 0.0506920111891 -39.01769573342 0.9938982371141 -129.6336161896 0.9938982371141 -129.6336161896 0.0506905054521 -39.02002107209
3.280000000000000 0.0500856740364 -39.80395116765 0.9939048166942 -130.4301130412 0.9939048166942 -130.4301130412 0.0500841737636 -39.80626268720
3.300000000000000 0.0494699101262 -40.59008035778 0.9939115165434 -131.2266812235 0.9939115165434 -131.2266812235 0.0494684241059 -40.59236579119
3.320000000000000 0.0488448412043 -41.37607299628 0.9939183134151 -132.0233209729 0.9939183134151 -132.0233209729 0.0488433786517 -41.37831945676
3.340000000000000 0.0482105907918 -42.16191801061 0.9939251840341 -132.8200324880 0.9939251840341 -132.8200324880 0.0482091613259 -42.16411199018
3.360000000000000 0.0475672841633 -42.94760349779 0.9939321051156 -133.6168159294 0.9939321051156 -133.6168159294 0.0475658977807 -42.94973086636
3.380000000000000 0.0469150483253 -43.73311665208 0.9939390533823 -134.4136714203 0.9939390533823 -134.4136714203 0.0469137153716 -43.73516265698
3.400000000000000 0.0462540119941 -44.51844368501 0.9939460055827 -135.2105990461 0.9939460055827 -135.2105990461 0.0462527431318 -44.52039295096
3.420000000000000 0.0455843055728 -45.30356973675 0.9939529385089 -136.0075988548 0.9939529385089 -136.0075988548 0.0455831117473 -45.30540626622
3.440000000000000 0.0449060611286 -46.08847877761 0.9939598290140 -136.8046708568 0.9939598290140 -136.8046708568 0.0449049535308 -46.09018595159
3.460000000000000 0.0442194123697 -46.87315349841 0.9939666540298 -137.6018150257 0.9939666540298 -137.6018150257 0.0442184023958 -46.87471407756
3.480000000000000 0.0435244946214 -47.65757518832 0.9939733905841 -138.3990312979 0.9939733905841 -138.3990312979 0.0435235938298 -47.65897131446
3.500000000000000 0.0428214448026 -48.44172359816 0.9939800158182 -139.1963195731 0.9939800158182 -139.1963195731 0.0428206648682 -48.44293679612
3.520000000000000 0.0421104014010 -49.22557678744 0.9939865070036 -139.9936797144 0.9939865070036 -139.9936797144 0.0421097540668 -49.22658796713
3.540000000000000 0.0413915044489 -50.00911095251 0.9939928415590 -140.7911115490 0.9939928415590 -140.7911115490 0.0413910014743 -50.00990041137
3.560000000000000 0.0406648954982 -50.79230023329 0.9939989970673 -141.5886148680 0.9939989970673 -141.5886148680 0.0406645486053 -50.79284765887
3.580000000000000 0.0399307175952 -51.57511649513 0.9940049512916 -142.3861894270 0.9940049512916 -142.3861894270 0.0399305384117 -51.57540096795
3.600000000000000 0.0391891152548 -52.35752909131 0.9940106821851 -143.1838349464 0.9940106821851 -143.1838349464 0.0391891152548 -52.35752909133
3.620000000000000 0.0384402380084 -53.13949541709 0.9940161686473 -143.9815511725 0.9940161686473 -143.9815511725 0.0384404215815 -53.13919505932
3.640000000000000 0.0376842370067 -53.92096848023 0.9940213897592 -144.7793378224 0.9940213897592 -144.7793378224 0.0376846009911 -53.92035840507
3.660000000000000 0.0369212612938 -54.70190616846 0.9940263241562 -145.5771945218 0.9940263241562 -145.5771945218 0.0369218016335 -54.70097775205
3.680000000000000 0.0361514612387 -55.48226239876 0.9940309507133 -146.3751208619 0.9940309507133 -146.3751208619 0.0361521729954 -55.48100780568
3.700000000000000 0.0353749885059 -56.26198663060 0.9940352485670 -147.1731164004 0.9940352485670 -147.1731164004 0.0353758658744 -56.26039886352
3.720000000000000 0.0345919960257 -57.04102331645 0.9940391971305 -147.9711806618 0.9940391971305 -147.9711806618 0.0345930323536 -57.03909626611
3.740000000000000 0.0338026379647 -57.81931126738 0.9940427761079 -148.7693131376 0.9940427761079 -148.7693131376 0.0338038257762 -57.81703976284
3.760000000000000 0.0330070696956 -58.59678291810 0.9940459655085 -149.5675132869 0.9940459655085 -149.5675132869 0.0330084007200 -58.59416277723
3.780000000000000 0.0322054477682 -59.37336347219 0.9940487456616 -150.3657805371 0.9940487456616 -150.3657805371 0.0322069129721 -59.37039155238
3.800000000000000 0.0313979298787 -60.14896990419 0.9940510972297 -151.1641142840 0.9940510972297 -151.1641142840 0.0313995195034 -60.14564415319
3.820000000000000 0.0305846748412 -60.92350978972 0.9940530012223 -151.9625138924 0.9940530012223 -151.9625138924 0.0305863784445 -60.91982929653
3.840000000000000 0.0297658425581 -61.69687992785 0.9940544390099 -152.7609786968 0.9940544390099 -152.7609786968 0.0297676490610 -61.69284497365
3.860000000000000 0.0289415939920 -62.46896471156 0.9940553923364 -153.5595080019 0.9940553923364 -153.5595080019 0.0289434917300 -62.46457682057
3.880000000000000 0.0281120911371 -63.23963419064 0.9940558433326 -154.3581010832 0.9940558433326 -154.3581010832 0.0281140679172 -63.23489618084
3.900000000000000 0.0272774969934 -64.00874175722 0.9940557745285 -155.1567571872 0.9940557745285 -155.1567571872 0.0272795401551 -64.00365779076
3.920000000000000 0.0264379755400 -64.77612136505 0.9940551688658 -155.9554755324 0.9940551688658 -155.9554755324 0.0264400720230 -64.77069699837
3.940000000000000 0.0255936917124 -65.54158416937 0.9940540097102 -156.7542553099 0.9940540097102 -156.7542553099 0.0255958281280 -65.53582640268
3.960000000000000 0.0247448113801 -66.30491444121 0.9940522808629 -157.5530956839 0.9940522808629 -157.5530956839 0.0247469740894 -66.29883176739
3.980000000000000 0.0238915013283 -67.06586456654 0.9940499665726 -158.3519957921 0.9940499665726 -158.3519957921 0.0238936765249 -67.05946701903
4.000000000000000 0.0230339292432 -67.82414888193 0.9940470515461 -159.1509547468 0.9940470515461 -159.1509547468 0.0230361030420 -67.81744808149
4.020000000000000 0.0221722637018 -68.57943601800 0.9940435209602 -159.9499716353 0.9940435209602 -159.9499716353 0.0221744222336 -68.57244521793
4.040000000000000 0.0213066741696 -69.33133931170 0.9940393604717 -160.7490455207 0.9940393604717 -160.7490455207 0.0213088036806 -69.32407344107
4.060000000000000 0.0204373310052 -70.07940469406 0.9940345562281 -161.5481754425 0.9940345562281 -161.5481754425 0.0204394179635 -70.07188039846
4.080000000000000 0.0195644054785 -70.82309524254 0.9940290948776 -162.3473604171 0.9940290948776 -162.3473604171 0.0195664366853 -70.81533092156
4.100000000000001 0.0186880698032 -71.56177127490 0.9940229635790 -163.1465994391 0.9940229635790 -163.1465994391 0.0186900325107 -71.55378711531
4.120000000000000 0.0178084971915 -72.29466440770 0.9940161500113 -163.9458914814 0.9940161500113 -163.9458914814 0.0178103792266 -72.28648241111